 Entering Gaussian System, Link 0=g16
 Input=RMGHERXMTMUMMV-UHFFFAOYSA-N_36by-10.0_tor04_a1.com
 Output=RMGHERXMTMUMMV-UHFFFAOYSA-N_36by-10.0_tor04_a1.log
 Initial command:
 /shared/centos7/gaussian/g16/l1.exe "/scratch/underkoffler.c/gaussian_scratch/Gau-43484.inp" -scrdir="/scratch/underkoffler.c/gaussian_scratch/"
 Entering Link 1 = /shared/centos7/gaussian/g16/l1.exe PID=     43485.
  
 Copyright (c) 1988,1990,1992,1993,1995,1998,2003,2009,2016,
            Gaussian, Inc.  All Rights Reserved.
  
 This is part of the Gaussian(R) 16 program.  It is based on
 the Gaussian(R) 09 system (copyright 2009, Gaussian, Inc.),
 the Gaussian(R) 03 system (copyright 2003, Gaussian, Inc.),
 the Gaussian(R) 98 system (copyright 1998, Gaussian, Inc.),
 the Gaussian(R) 94 system (copyright 1995, Gaussian, Inc.),
 the Gaussian 92(TM) system (copyright 1992, Gaussian, Inc.),
 the Gaussian 90(TM) system (copyright 1990, Gaussian, Inc.),
 the Gaussian 88(TM) system (copyright 1988, Gaussian, Inc.),
 the Gaussian 86(TM) system (copyright 1986, Carnegie Mellon
 University), and the Gaussian 82(TM) system (copyright 1983,
 Carnegie Mellon University). Gaussian is a federally registered
 trademark of Gaussian, Inc.
  
 This software contains proprietary and confidential information,
 including trade secrets, belonging to Gaussian, Inc.
  
 This software is provided under written license and may be
 used, copied, transmitted, or stored only in accord with that
 written license.
  
 The following legend is applicable only to US Government
 contracts under FAR:
  
                    RESTRICTED RIGHTS LEGEND
  
 Use, reproduction and disclosure by the US Government is
 subject to restrictions as set forth in subparagraphs (a)
 and (c) of the Commercial Computer Software - Restricted
 Rights clause in FAR 52.227-19.
  
 Gaussian, Inc.
 340 Quinnipiac St., Bldg. 40, Wallingford CT 06492
  
  
 ---------------------------------------------------------------
 Warning -- This program may not be used in any manner that
 competes with the business of Gaussian, Inc. or will provide
 assistance to any competitor of Gaussian, Inc.  The licensee
 of this program is prohibited from giving any competitor of
 Gaussian, Inc. access to this program.  By using this program,
 the user acknowledges that Gaussian, Inc. is engaged in the
 business of creating and licensing software in the field of
 computational chemistry and represents and warrants to the
 licensee that it is not a competitor of Gaussian, Inc. and that
 it will not use this program in any manner prohibited above.
 ---------------------------------------------------------------
  

 Cite this work as:
 Gaussian 16, Revision A.03,
 M. J. Frisch, G. W. Trucks, H. B. Schlegel, G. E. Scuseria, 
 M. A. Robb, J. R. Cheeseman, G. Scalmani, V. Barone, 
 G. A. Petersson, H. Nakatsuji, X. Li, M. Caricato, A. V. Marenich, 
 J. Bloino, B. G. Janesko, R. Gomperts, B. Mennucci, H. P. Hratchian, 
 J. V. Ortiz, A. F. Izmaylov, J. L. Sonnenberg, D. Williams-Young, 
 F. Ding, F. Lipparini, F. Egidi, J. Goings, B. Peng, A. Petrone, 
 T. Henderson, D. Ranasinghe, V. G. Zakrzewski, J. Gao, N. Rega, 
 G. Zheng, W. Liang, M. Hada, M. Ehara, K. Toyota, R. Fukuda, 
 J. Hasegawa, M. Ishida, T. Nakajima, Y. Honda, O. Kitao, H. Nakai, 
 T. Vreven, K. Throssell, J. A. Montgomery, Jr., J. E. Peralta, 
 F. Ogliaro, M. J. Bearpark, J. J. Heyd, E. N. Brothers, K. N. Kudin, 
 V. N. Staroverov, T. A. Keith, R. Kobayashi, J. Normand, 
 K. Raghavachari, A. P. Rendell, J. C. Burant, S. S. Iyengar, 
 J. Tomasi, M. Cossi, J. M. Millam, M. Klene, C. Adamo, R. Cammi, 
 J. W. Ochterski, R. L. Martin, K. Morokuma, O. Farkas, 
 J. B. Foresman, and D. J. Fox, Gaussian, Inc., Wallingford CT, 2016.
 
 ******************************************
 Gaussian 16:  EM64L-G16RevA.03 25-Dec-2016
                12-Mar-2019 
 ******************************************
 %nprocshared=20
 Will use up to   20 processors via shared memory.
 %mem=5GB
 ----------------------------------------------
 #p m062x/6-311+g(2df,2p) Opt=(CalcFC,ModRedun)
 ----------------------------------------------
 1/10=4,18=120,19=15,26=3,38=1/1,3;
 2/9=110,12=2,17=6,18=5,40=1/2;
 3/5=4,6=6,7=214,11=2,25=1,30=1,71=2,74=-55,140=1/1,2,3;
 4//1;
 5/5=2,38=5/2;
 8/6=4,10=90,11=11/1;
 11/6=1,8=1,9=11,15=111,16=1/1,2,10;
 10/6=1,13=1/2;
 6/7=2,8=2,9=2,10=2,28=1/1;
 7/10=1,18=20,25=1/1,2,3,16;
 1/10=4,18=20,19=15,26=3/3(2);
 2/9=110/2;
 99//99;
 2/9=110/2;
 3/5=4,6=6,7=214,11=2,25=1,30=1,71=1,74=-55/1,2,3;
 4/5=5,16=3,69=1/1;
 5/5=2,38=5/2;
 7//1,2,3,16;
 1/18=20,19=15,26=3/3(-5);
 2/9=110/2;
 6/7=2,8=2,9=2,10=2,19=2,28=1/1;
 99/9=1/99;
 Leave Link    1 at Tue Mar 12 00:34:06 2019, MaxMem=   671088640 cpu:              38.1 elap:               2.0
 (Enter /shared/centos7/gaussian/g16/l101.exe)
 ----------------------------------------
 Gaussian Input Prepared from Scan Object
 ----------------------------------------
 Symbolic Z-matrix:
 Charge =  0 Multiplicity = 1
 O                     0.67918  -0.63289  -0.30886 
 C                    -0.42184  -0.00967   0.32654 
 C                    -0.58211   1.44291  -0.10309 
 C                    -1.64264  -0.83584  -0.02679 
 C                     1.93316  -0.12636   0.06564 
 H                    -0.25962  -0.04557   1.41333 
 H                    -0.67632   1.49627  -1.18863 
 H                     0.26412   2.056     0.20357 
 H                    -1.47992   1.8688    0.34431 
 H                    -2.52872  -0.44463   0.47175 
 H                    -1.49785  -1.87246   0.27174 
 H                    -1.80741  -0.80707  -1.10427 
 H                     2.11414   0.87197  -0.34236 
 H                     2.03208  -0.08221   1.1564 
 H                     2.68674  -0.80409  -0.32881 
 
 The following ModRedundant input section has been read:
 B       2       3 B                                                           
 B       3       8 B                                                           
 B       5      13 B                                                           
 B       1       2 B                                                           
 B       5      14 B                                                           
 B       2       6 B                                                           
 B       1       5 B                                                           
 B       4      11 B                                                           
 B       5      15 B                                                           
 B       2       4 B                                                           
 B       4      12 B                                                           
 B       3       7 B                                                           
 B       4      10 B                                                           
 B       3       9 B                                                           
 D       2       1       5      14 S  36 -10.00                                
 
 ITRead=  0  0  0  0  0  0  0  0  0  0  0  0  0  0  0
 MicOpt= -1 -1 -1 -1 -1 -1 -1 -1 -1 -1 -1 -1 -1 -1 -1
 NAtoms=     15 NQM=       15 NQMF=       0 NMMI=      0 NMMIF=      0
                NMic=       0 NMicF=      0.
                    Isotopes and Nuclear Properties:
 (Nuclear quadrupole moments (NQMom) in fm**2, nuclear magnetic moments (NMagM)
  in nuclear magnetons)

  Atom         1           2           3           4           5           6           7           8           9          10
 IAtWgt=          16          12          12          12          12           1           1           1           1           1
 AtmWgt=  15.9949146  12.0000000  12.0000000  12.0000000  12.0000000   1.0078250   1.0078250   1.0078250   1.0078250   1.0078250
 NucSpn=           0           0           0           0           0           1           1           1           1           1
 AtZEff=  -0.0000000  -0.0000000  -0.0000000  -0.0000000  -0.0000000  -0.0000000  -0.0000000  -0.0000000  -0.0000000  -0.0000000
 NQMom=    0.0000000   0.0000000   0.0000000   0.0000000   0.0000000   0.0000000   0.0000000   0.0000000   0.0000000   0.0000000
 NMagM=    0.0000000   0.0000000   0.0000000   0.0000000   0.0000000   2.7928460   2.7928460   2.7928460   2.7928460   2.7928460
 AtZNuc=   8.0000000   6.0000000   6.0000000   6.0000000   6.0000000   1.0000000   1.0000000   1.0000000   1.0000000   1.0000000

  Atom        11          12          13          14          15
 IAtWgt=           1           1           1           1           1
 AtmWgt=   1.0078250   1.0078250   1.0078250   1.0078250   1.0078250
 NucSpn=           1           1           1           1           1
 AtZEff=  -0.0000000  -0.0000000  -0.0000000  -0.0000000  -0.0000000
 NQMom=    0.0000000   0.0000000   0.0000000   0.0000000   0.0000000
 NMagM=    2.7928460   2.7928460   2.7928460   2.7928460   2.7928460
 AtZNuc=   1.0000000   1.0000000   1.0000000   1.0000000   1.0000000
 Leave Link  101 at Tue Mar 12 00:34:06 2019, MaxMem=   671088640 cpu:               7.0 elap:               0.4
 (Enter /shared/centos7/gaussian/g16/l103.exe)

 GradGradGradGradGradGradGradGradGradGradGradGradGradGradGradGradGradGrad
 Berny optimization.
 Initialization pass.
                           ----------------------------
                           !    Initial Parameters    !
                           ! (Angstroms and Degrees)  !
 --------------------------                            --------------------------
 ! Name  Definition              Value          Derivative Info.                !
 --------------------------------------------------------------------------------
 ! R1    R(1,2)                  1.4158         calculate D2E/DX2 analytically  !
 ! R2    R(1,5)                  1.4033         calculate D2E/DX2 analytically  !
 ! R3    R(2,3)                  1.5232         calculate D2E/DX2 analytically  !
 ! R4    R(2,4)                  1.5158         calculate D2E/DX2 analytically  !
 ! R5    R(2,6)                  1.0994         calculate D2E/DX2 analytically  !
 ! R6    R(3,7)                  1.0909         calculate D2E/DX2 analytically  !
 ! R7    R(3,8)                  1.089          calculate D2E/DX2 analytically  !
 ! R8    R(3,9)                  1.0898         calculate D2E/DX2 analytically  !
 ! R9    R(4,10)                 1.0894         calculate D2E/DX2 analytically  !
 ! R10   R(4,11)                 1.0884         calculate D2E/DX2 analytically  !
 ! R11   R(4,12)                 1.0904         calculate D2E/DX2 analytically  !
 ! R12   R(5,13)                 1.0936         calculate D2E/DX2 analytically  !
 ! R13   R(5,14)                 1.0961         calculate D2E/DX2 analytically  !
 ! R14   R(5,15)                 1.0876         calculate D2E/DX2 analytically  !
 ! A1    A(2,1,5)              114.5994         calculate D2E/DX2 analytically  !
 ! A2    A(1,2,3)              112.0256         calculate D2E/DX2 analytically  !
 ! A3    A(1,2,4)              106.3672         calculate D2E/DX2 analytically  !
 ! A4    A(1,2,6)              108.3324         calculate D2E/DX2 analytically  !
 ! A5    A(3,2,4)              111.6702         calculate D2E/DX2 analytically  !
 ! A6    A(3,2,6)              108.9941         calculate D2E/DX2 analytically  !
 ! A7    A(4,2,6)              109.3567         calculate D2E/DX2 analytically  !
 ! A8    A(2,3,7)              109.6568         calculate D2E/DX2 analytically  !
 ! A9    A(2,3,8)              112.0657         calculate D2E/DX2 analytically  !
 ! A10   A(2,3,9)              110.0941         calculate D2E/DX2 analytically  !
 ! A11   A(7,3,8)              108.6488         calculate D2E/DX2 analytically  !
 ! A12   A(7,3,9)              108.5573         calculate D2E/DX2 analytically  !
 ! A13   A(8,3,9)              107.7313         calculate D2E/DX2 analytically  !
 ! A14   A(2,4,10)             110.6511         calculate D2E/DX2 analytically  !
 ! A15   A(2,4,11)             110.3663         calculate D2E/DX2 analytically  !
 ! A16   A(2,4,12)             109.7335         calculate D2E/DX2 analytically  !
 ! A17   A(10,4,11)            108.948          calculate D2E/DX2 analytically  !
 ! A18   A(10,4,12)            108.6532         calculate D2E/DX2 analytically  !
 ! A19   A(11,4,12)            108.4369         calculate D2E/DX2 analytically  !
 ! A20   A(1,5,13)             112.1999         calculate D2E/DX2 analytically  !
 ! A21   A(1,5,14)             111.1458         calculate D2E/DX2 analytically  !
 ! A22   A(1,5,15)             107.3052         calculate D2E/DX2 analytically  !
 ! A23   A(13,5,14)            108.6358         calculate D2E/DX2 analytically  !
 ! A24   A(13,5,15)            108.5968         calculate D2E/DX2 analytically  !
 ! A25   A(14,5,15)            108.8734         calculate D2E/DX2 analytically  !
 ! D1    D(5,1,2,3)             66.8754         calculate D2E/DX2 analytically  !
 ! D2    D(5,1,2,4)           -170.8503         calculate D2E/DX2 analytically  !
 ! D3    D(5,1,2,6)            -53.3837         calculate D2E/DX2 analytically  !
 ! D4    D(2,1,5,13)           -71.7954         calculate D2E/DX2 analytically  !
 ! D5    D(2,1,5,14)            50.0681         Scan                            !
 ! D6    D(2,1,5,15)           169.001          calculate D2E/DX2 analytically  !
 ! D7    D(1,2,3,7)             56.326          calculate D2E/DX2 analytically  !
 ! D8    D(1,2,3,8)            -64.4168         calculate D2E/DX2 analytically  !
 ! D9    D(1,2,3,9)            175.7012         calculate D2E/DX2 analytically  !
 ! D10   D(4,2,3,7)            -62.8728         calculate D2E/DX2 analytically  !
 ! D11   D(4,2,3,8)            176.3844         calculate D2E/DX2 analytically  !
 ! D12   D(4,2,3,9)             56.5024         calculate D2E/DX2 analytically  !
 ! D13   D(6,2,3,7)            176.199          calculate D2E/DX2 analytically  !
 ! D14   D(6,2,3,8)             55.4562         calculate D2E/DX2 analytically  !
 ! D15   D(6,2,3,9)            -64.4258         calculate D2E/DX2 analytically  !
 ! D16   D(1,2,4,10)           177.0752         calculate D2E/DX2 analytically  !
 ! D17   D(1,2,4,11)            56.4075         calculate D2E/DX2 analytically  !
 ! D18   D(1,2,4,12)           -63.0356         calculate D2E/DX2 analytically  !
 ! D19   D(3,2,4,10)           -60.4258         calculate D2E/DX2 analytically  !
 ! D20   D(3,2,4,11)           178.9065         calculate D2E/DX2 analytically  !
 ! D21   D(3,2,4,12)            59.4633         calculate D2E/DX2 analytically  !
 ! D22   D(6,2,4,10)            60.2911         calculate D2E/DX2 analytically  !
 ! D23   D(6,2,4,11)           -60.3766         calculate D2E/DX2 analytically  !
 ! D24   D(6,2,4,12)          -179.8198         calculate D2E/DX2 analytically  !
 --------------------------------------------------------------------------------
 Trust Radius=3.00D-01 FncErr=1.00D-07 GrdErr=1.00D-06 EigMax=2.50D+02 EigMin=1.00D-04
 Number of optimizations in scan=  37
 Number of steps in this run=     73 maximum allowed number of steps=    100.
 GradGradGradGradGradGradGradGradGradGradGradGradGradGradGradGradGradGrad

 Leave Link  103 at Tue Mar 12 00:34:06 2019, MaxMem=   671088640 cpu:               0.2 elap:               0.0
 (Enter /shared/centos7/gaussian/g16/l202.exe)
                          Input orientation:                          
 ---------------------------------------------------------------------
 Center     Atomic      Atomic             Coordinates (Angstroms)
 Number     Number       Type             X           Y           Z
 ---------------------------------------------------------------------
      1          8           0        0.679179   -0.632886   -0.308860
      2          6           0       -0.421839   -0.009670    0.326538
      3          6           0       -0.582110    1.442912   -0.103090
      4          6           0       -1.642641   -0.835840   -0.026786
      5          6           0        1.933156   -0.126363    0.065637
      6          1           0       -0.259620   -0.045568    1.413326
      7          1           0       -0.676325    1.496270   -1.188628
      8          1           0        0.264120    2.056004    0.203569
      9          1           0       -1.479924    1.868799    0.344312
     10          1           0       -2.528723   -0.444627    0.471752
     11          1           0       -1.497852   -1.872458    0.271741
     12          1           0       -1.807405   -0.807071   -1.104272
     13          1           0        2.114137    0.871966   -0.342355
     14          1           0        2.032077   -0.082211    1.156401
     15          1           0        2.686742   -0.804089   -0.328805
 ---------------------------------------------------------------------
                    Distance matrix (angstroms):
                    1          2          3          4          5
     1  O    0.000000
     2  C    1.415757   0.000000
     3  C    2.437648   1.523241   0.000000
     4  C    2.347681   1.515834   2.514610   0.000000
     5  C    1.403307   2.372275   2.969454   3.646673   0.000000
     6  H    2.047489   1.099414   2.149207   2.147370   2.575085
     7  H    2.672955   2.151360   1.090925   2.778918   3.318962
     8  H    2.768571   2.180063   1.089049   3.471536   2.750897
     9  H    3.368500   2.156040   1.089779   2.734824   3.963262
    10  H    3.306877   2.156208   2.771742   1.089371   4.491613
    11  H    2.571596   2.151926   3.459879   1.088420   3.855275
    12  H    2.616510   2.145427   2.750661   1.090390   3.977920
    13  H    2.079617   2.766925   2.766401   4.138788   1.093560
    14  H    2.068952   2.591454   3.278153   3.933374   1.096130
    15  H    2.014949   3.274729   3.973079   4.340021   1.087561
                    6          7          8          9         10
     6  H    0.000000
     7  H    3.053043   0.000000
     8  H    2.480810   1.770862   0.000000
     9  H    2.509329   1.770440   1.759700   0.000000
    10  H    2.488903   3.155206   3.758331   2.543258   0.000000
    11  H    2.484746   3.762435   4.306044   3.742004   1.772399
    12  H    3.051856   2.567458   3.768138   3.060379   1.770738
    13  H    3.091765   2.982048   2.263304   3.792422   4.894113
    14  H    2.306345   3.914869   2.933517   4.098790   4.626119
    15  H    3.505913   4.164273   3.785849   4.995851   5.288779
                   11         12         13         14         15
    11  H    0.000000
    12  H    1.767564   0.000000
    13  H    4.577712   4.333380   0.000000
    14  H    4.055614   4.514165   1.778611   0.000000
    15  H    4.360379   4.560561   1.771220   1.776382   0.000000
 Stoichiometry    C4H10O
 Framework group  C1[X(C4H10O)]
 Deg. of freedom    39
 Full point group                 C1      NOp   1
 Largest Abelian subgroup         C1      NOp   1
 Largest concise Abelian subgroup C1      NOp   1
                         Standard orientation:                         
 ---------------------------------------------------------------------
 Center     Atomic      Atomic             Coordinates (Angstroms)
 Number     Number       Type             X           Y           Z
 ---------------------------------------------------------------------
      1          8           0        0.679189   -0.632878   -0.308859
      2          6           0       -0.421840   -0.009681    0.326539
      3          6           0       -0.582136    1.442899   -0.103089
      4          6           0       -1.642628   -0.835872   -0.026785
      5          6           0        1.933157   -0.126334    0.065638
      6          1           0       -0.259621   -0.045576    1.413327
      7          1           0       -0.676352    1.496255   -1.188627
      8          1           0        0.264083    2.056005    0.203570
      9          1           0       -1.479958    1.868769    0.344313
     10          1           0       -2.528717   -0.444675    0.471753
     11          1           0       -1.497821   -1.872488    0.271743
     12          1           0       -1.807393   -0.807106   -1.104270
     13          1           0        2.114121    0.871999   -0.342354
     14          1           0        2.032077   -0.082180    1.156402
     15          1           0        2.686755   -0.804046   -0.328804
 ---------------------------------------------------------------------
 Rotational constants (GHZ):           7.7293204           3.8506206           2.8503180
 Leave Link  202 at Tue Mar 12 00:34:06 2019, MaxMem=   671088640 cpu:               0.2 elap:               0.0
 (Enter /shared/centos7/gaussian/g16/l301.exe)
 Standard basis: 6-311+G(2df,2p) (5D, 7F)
 Ernie: Thresh=  0.10000D-02 Tol=  0.10000D-05 Strict=F.
 There are   285 symmetry adapted cartesian basis functions of A   symmetry.
 There are   260 symmetry adapted basis functions of A   symmetry.
   260 basis functions,   370 primitive gaussians,   285 cartesian basis functions
    21 alpha electrons       21 beta electrons
       nuclear repulsion energy       197.4095515522 Hartrees.
 IExCor= 4336 DFT=T Ex+Corr=M062X ExCW=0 ScaHFX=  0.540000
 ScaDFX=  1.000000  1.000000  1.000000  1.000000 ScalE2=  1.000000  1.000000
 IRadAn=      5 IRanWt=     -1 IRanGd=            0 ICorTp=0 IEmpDi=  4
 NAtoms=   15 NActive=   15 NUniq=   15 SFac= 1.00D+00 NAtFMM=   60 NAOKFM=F Big=F
 Integral buffers will be    131072 words long.
 Raffenetti 2 integral format.
 Two-electron integral symmetry is turned on.
 Leave Link  301 at Tue Mar 12 00:34:06 2019, MaxMem=   671088640 cpu:               0.9 elap:               0.1
 (Enter /shared/centos7/gaussian/g16/l302.exe)
 NPDir=0 NMtPBC=     1 NCelOv=     1 NCel=       1 NClECP=     1 NCelD=      1
         NCelK=      1 NCelE2=     1 NClLst=     1 CellRange=     0.0.
 One-electron integrals computed using PRISM.
 One-electron integral symmetry used in STVInt
 NBasis=   260 RedAO= T EigKep=  4.54D-05  NBF=   260
 NBsUse=   260 1.00D-06 EigRej= -1.00D+00 NBFU=   260
 Precomputing XC quadrature grid using
 IXCGrd= 4 IRadAn=           5 IRanWt=          -1 IRanGd=           0 AccXCQ= 0.00D+00.
 Generated NRdTot=       0 NPtTot=           0 NUsed=           0 NTot=          32
 NSgBfM=   285   285   285   285   285 MxSgAt=    15 MxSgA2=    15.
 Leave Link  302 at Tue Mar 12 00:34:06 2019, MaxMem=   671088640 cpu:               5.5 elap:               0.3
 (Enter /shared/centos7/gaussian/g16/l303.exe)
 DipDrv:  MaxL=1.
 Leave Link  303 at Tue Mar 12 00:34:06 2019, MaxMem=   671088640 cpu:               0.5 elap:               0.0
 (Enter /shared/centos7/gaussian/g16/l401.exe)
 ExpMin= 4.38D-02 ExpMax= 8.59D+03 ExpMxC= 1.30D+03 IAcc=3 IRadAn=         5 AccDes= 0.00D+00
 Harris functional with IExCor= 1009 and IRadAn=       5 diagonalized for initial guess.
 HarFok:  IExCor= 1009 AccDes= 0.00D+00 IRadAn=         5 IDoV= 1 UseB2=F ITyADJ=14
 ICtDFT=  3500011 ScaDFX=  1.000000  1.000000  1.000000  1.000000
 FoFCou: FMM=F IPFlag=           0 FMFlag=      100000 FMFlg1=           0
         NFxFlg=           0 DoJE=T BraDBF=F KetDBF=T FulRan=T
         wScrn=  0.000000 ICntrl=       500 IOpCl=  0 I1Cent=   200000004 NGrid=           0
         NMat0=    1 NMatS0=      1 NMatT0=    0 NMatD0=    1 NMtDS0=    0 NMtDT0=    0
 Petite list used in FoFCou.
 Harris En= -233.583115224435    
 JPrj=0 DoOrth=F DoCkMO=F.
 Leave Link  401 at Tue Mar 12 00:34:07 2019, MaxMem=   671088640 cpu:              17.0 elap:               0.9
 (Enter /shared/centos7/gaussian/g16/l502.exe)
 Integral symmetry usage will be decided dynamically.
 Closed shell SCF:
 Using DIIS extrapolation, IDIIS=  1040.
 NGot=   671088640 LenX=   670917793 LenY=   670836127
 Requested convergence on RMS density matrix=1.00D-08 within 128 cycles.
 Requested convergence on MAX density matrix=1.00D-06.
 Requested convergence on             energy=1.00D-06.
 No special actions if energy rises.
 Fock matrices will be formed incrementally for  20 cycles.

 Cycle   1  Pass 1  IDiag  1:
 FoFJK:  IHMeth= 1 ICntrl=       0 DoSepK=F KAlg= 0 I1Cent=           0 FoldK=F
 IRaf= 980000000 NMat=       1 IRICut=       1 DoRegI=T DoRafI=F ISym2E= 0 IDoP0=0 IntGTp=1.
 FoFCou: FMM=F IPFlag=           0 FMFlag=      100000 FMFlg1=           0
         NFxFlg=           0 DoJE=F BraDBF=F KetDBF=F FulRan=T
         wScrn=  0.000000 ICntrl=         0 IOpCl=  0 I1Cent=           0 NGrid=           0
         NMat0=    1 NMatS0=      1 NMatT0=    0 NMatD0=    1 NMtDS0=    0 NMtDT0=    0
 Symmetry not used in FoFCou.
 E= -233.419632294199    
 DIIS: error= 2.45D-02 at cycle   1 NSaved=   1.
 NSaved= 1 IEnMin= 1 EnMin= -233.419632294199     IErMin= 1 ErrMin= 2.45D-02
 ErrMax= 2.45D-02  0.00D+00 EMaxC= 1.00D-01 BMatC= 2.41D-01 BMatP= 2.41D-01
 IDIUse=3 WtCom= 7.55D-01 WtEn= 2.45D-01
 Coeff-Com:  0.100D+01
 Coeff-En:   0.100D+01
 Coeff:      0.100D+01
 Gap=     0.316 Goal=   None    Shift=    0.000
 GapD=    0.316 DampG=1.000 DampE=0.500 DampFc=0.5000 IDamp=-1.
 Damping current iteration by 5.00D-01
 RMSDP=2.34D-03 MaxDP=1.14D-01              OVMax= 1.50D-01

 Cycle   2  Pass 1  IDiag  1:
 RMSU=  1.14D-03    CP:  9.70D-01
 E= -233.526705155557     Delta-E=       -0.107072861358 Rises=F Damp=T
 DIIS: error= 5.03D-03 at cycle   2 NSaved=   2.
 NSaved= 2 IEnMin= 2 EnMin= -233.526705155557     IErMin= 2 ErrMin= 5.03D-03
 ErrMax= 5.03D-03  0.00D+00 EMaxC= 1.00D-01 BMatC= 1.45D-02 BMatP= 2.41D-01
 IDIUse=3 WtCom= 9.50D-01 WtEn= 5.03D-02
 Coeff-Com: -0.128D+00 0.113D+01
 Coeff-En:   0.000D+00 0.100D+01
 Coeff:     -0.121D+00 0.112D+01
 Gap=     0.365 Goal=   None    Shift=    0.000
 RMSDP=8.36D-04 MaxDP=5.07D-02 DE=-1.07D-01 OVMax= 7.44D-02

 Cycle   3  Pass 1  IDiag  1:
 RMSU=  8.31D-04    CP:  9.59D-01  9.80D-01
 E= -233.623334792797     Delta-E=       -0.096629637240 Rises=F Damp=F
 DIIS: error= 3.34D-03 at cycle   3 NSaved=   3.
 NSaved= 3 IEnMin= 3 EnMin= -233.623334792797     IErMin= 3 ErrMin= 3.34D-03
 ErrMax= 3.34D-03  0.00D+00 EMaxC= 1.00D-01 BMatC= 2.36D-03 BMatP= 1.45D-02
 IDIUse=3 WtCom= 9.67D-01 WtEn= 3.34D-02
 Coeff-Com: -0.711D-01 0.293D+00 0.778D+00
 Coeff-En:   0.000D+00 0.000D+00 0.100D+01
 Coeff:     -0.688D-01 0.283D+00 0.786D+00
 Gap=     0.338 Goal=   None    Shift=    0.000
 RMSDP=1.69D-04 MaxDP=9.15D-03 DE=-9.66D-02 OVMax= 1.38D-02

 Cycle   4  Pass 1  IDiag  1:
 RMSU=  1.52D-04    CP:  9.56D-01  1.04D+00  9.91D-01
 E= -233.624619979842     Delta-E=       -0.001285187045 Rises=F Damp=F
 DIIS: error= 1.63D-03 at cycle   4 NSaved=   4.
 NSaved= 4 IEnMin= 4 EnMin= -233.624619979842     IErMin= 4 ErrMin= 1.63D-03
 ErrMax= 1.63D-03  0.00D+00 EMaxC= 1.00D-01 BMatC= 8.33D-04 BMatP= 2.36D-03
 IDIUse=3 WtCom= 9.84D-01 WtEn= 1.63D-02
 Coeff-Com: -0.252D-01 0.695D-01 0.405D+00 0.551D+00
 Coeff-En:   0.000D+00 0.000D+00 0.202D+00 0.798D+00
 Coeff:     -0.248D-01 0.684D-01 0.402D+00 0.555D+00
 Gap=     0.344 Goal=   None    Shift=    0.000
 RMSDP=6.60D-05 MaxDP=4.34D-03 DE=-1.29D-03 OVMax= 5.57D-03

 Cycle   5  Pass 1  IDiag  1:
 RMSU=  4.03D-05    CP:  9.56D-01  1.03D+00  1.00D+00  6.70D-01
 E= -233.625198506332     Delta-E=       -0.000578526491 Rises=F Damp=F
 DIIS: error= 2.72D-04 at cycle   5 NSaved=   5.
 NSaved= 5 IEnMin= 5 EnMin= -233.625198506332     IErMin= 5 ErrMin= 2.72D-04
 ErrMax= 2.72D-04  0.00D+00 EMaxC= 1.00D-01 BMatC= 1.73D-05 BMatP= 8.33D-04
 IDIUse=3 WtCom= 9.97D-01 WtEn= 2.72D-03
 Coeff-Com: -0.362D-02 0.630D-02 0.921D-01 0.191D+00 0.714D+00
 Coeff-En:   0.000D+00 0.000D+00 0.000D+00 0.000D+00 0.100D+01
 Coeff:     -0.361D-02 0.628D-02 0.918D-01 0.191D+00 0.715D+00
 Gap=     0.344 Goal=   None    Shift=    0.000
 RMSDP=1.52D-05 MaxDP=5.58D-04 DE=-5.79D-04 OVMax= 7.50D-04

 Cycle   6  Pass 1  IDiag  1:
 RMSU=  1.42D-05    CP:  9.56D-01  1.02D+00  1.01D+00  6.83D-01  9.26D-01
 E= -233.625210312439     Delta-E=       -0.000011806106 Rises=F Damp=F
 DIIS: error= 5.29D-05 at cycle   6 NSaved=   6.
 NSaved= 6 IEnMin= 6 EnMin= -233.625210312439     IErMin= 6 ErrMin= 5.29D-05
 ErrMax= 5.29D-05  0.00D+00 EMaxC= 1.00D-01 BMatC= 1.25D-06 BMatP= 1.73D-05
 IDIUse=1 WtCom= 1.00D+00 WtEn= 0.00D+00
 Coeff-Com:  0.358D-03-0.198D-02 0.112D-01 0.433D-01 0.270D+00 0.678D+00
 Coeff:      0.358D-03-0.198D-02 0.112D-01 0.433D-01 0.270D+00 0.678D+00
 Gap=     0.344 Goal=   None    Shift=    0.000
 RMSDP=3.61D-06 MaxDP=2.25D-04 DE=-1.18D-05 OVMax= 2.64D-04

 Cycle   7  Pass 1  IDiag  1:
 RMSU=  2.99D-06    CP:  9.56D-01  1.02D+00  1.01D+00  6.88D-01  9.69D-01
                    CP:  9.77D-01
 E= -233.625211380416     Delta-E=       -0.000001067977 Rises=F Damp=F
 DIIS: error= 1.91D-05 at cycle   7 NSaved=   7.
 NSaved= 7 IEnMin= 7 EnMin= -233.625211380416     IErMin= 7 ErrMin= 1.91D-05
 ErrMax= 1.91D-05  0.00D+00 EMaxC= 1.00D-01 BMatC= 8.36D-08 BMatP= 1.25D-06
 IDIUse=1 WtCom= 1.00D+00 WtEn= 0.00D+00
 Coeff-Com:  0.602D-03-0.140D-02-0.899D-02-0.114D-01-0.197D-01 0.185D+00
 Coeff-Com:  0.856D+00
 Coeff:      0.602D-03-0.140D-02-0.899D-02-0.114D-01-0.197D-01 0.185D+00
 Coeff:      0.856D+00
 Gap=     0.344 Goal=   None    Shift=    0.000
 RMSDP=1.94D-06 MaxDP=7.01D-05 DE=-1.07D-06 OVMax= 7.78D-05

 Cycle   8  Pass 1  IDiag  1:
 RMSU=  1.10D-06    CP:  9.56D-01  1.02D+00  1.01D+00  6.90D-01  9.85D-01
                    CP:  1.06D+00  1.01D+00
 E= -233.625211461428     Delta-E=       -0.000000081013 Rises=F Damp=F
 DIIS: error= 2.82D-06 at cycle   8 NSaved=   8.
 NSaved= 8 IEnMin= 8 EnMin= -233.625211461428     IErMin= 8 ErrMin= 2.82D-06
 ErrMax= 2.82D-06  0.00D+00 EMaxC= 1.00D-01 BMatC= 2.23D-09 BMatP= 8.36D-08
 IDIUse=1 WtCom= 1.00D+00 WtEn= 0.00D+00
 Coeff-Com:  0.107D-03-0.229D-03-0.248D-02-0.403D-02-0.142D-01 0.183D-01
 Coeff-Com:  0.190D+00 0.813D+00
 Coeff:      0.107D-03-0.229D-03-0.248D-02-0.403D-02-0.142D-01 0.183D-01
 Coeff:      0.190D+00 0.813D+00
 Gap=     0.344 Goal=   None    Shift=    0.000
 RMSDP=3.05D-07 MaxDP=1.06D-05 DE=-8.10D-08 OVMax= 1.26D-05

 Cycle   9  Pass 1  IDiag  1:
 RMSU=  2.41D-07    CP:  9.56D-01  1.02D+00  1.01D+00  6.90D-01  9.85D-01
                    CP:  1.06D+00  1.03D+00  1.01D+00
 E= -233.625211463780     Delta-E=       -0.000000002351 Rises=F Damp=F
 DIIS: error= 5.96D-07 at cycle   9 NSaved=   9.
 NSaved= 9 IEnMin= 9 EnMin= -233.625211463780     IErMin= 9 ErrMin= 5.96D-07
 ErrMax= 5.96D-07  0.00D+00 EMaxC= 1.00D-01 BMatC= 1.36D-10 BMatP= 2.23D-09
 IDIUse=1 WtCom= 1.00D+00 WtEn= 0.00D+00
 Coeff-Com: -0.156D-04 0.346D-04-0.208D-04-0.177D-03-0.136D-02-0.547D-02
 Coeff-Com: -0.110D-01 0.161D+00 0.857D+00
 Coeff:     -0.156D-04 0.346D-04-0.208D-04-0.177D-03-0.136D-02-0.547D-02
 Coeff:     -0.110D-01 0.161D+00 0.857D+00
 Gap=     0.344 Goal=   None    Shift=    0.000
 RMSDP=8.53D-08 MaxDP=2.98D-06 DE=-2.35D-09 OVMax= 3.84D-06

 Cycle  10  Pass 1  IDiag  1:
 RMSU=  4.45D-08    CP:  9.56D-01  1.02D+00  1.01D+00  6.90D-01  9.85D-01
                    CP:  1.06D+00  1.03D+00  1.07D+00  1.06D+00
 E= -233.625211463920     Delta-E=       -0.000000000140 Rises=F Damp=F
 DIIS: error= 2.29D-07 at cycle  10 NSaved=  10.
 NSaved=10 IEnMin=10 EnMin= -233.625211463920     IErMin=10 ErrMin= 2.29D-07
 ErrMax= 2.29D-07  0.00D+00 EMaxC= 1.00D-01 BMatC= 2.01D-11 BMatP= 1.36D-10
 IDIUse=1 WtCom= 1.00D+00 WtEn= 0.00D+00
 Coeff-Com: -0.108D-04 0.238D-04 0.120D-03 0.146D-03 0.330D-03-0.285D-02
 Coeff-Com: -0.146D-01 0.114D-01 0.322D+00 0.683D+00
 Coeff:     -0.108D-04 0.238D-04 0.120D-03 0.146D-03 0.330D-03-0.285D-02
 Coeff:     -0.146D-01 0.114D-01 0.322D+00 0.683D+00
 Gap=     0.344 Goal=   None    Shift=    0.000
 RMSDP=1.57D-08 MaxDP=9.82D-07 DE=-1.40D-10 OVMax= 1.01D-06

 Cycle  11  Pass 1  IDiag  1:
 RMSU=  1.19D-08    CP:  9.56D-01  1.02D+00  1.01D+00  6.90D-01  9.85D-01
                    CP:  1.06D+00  1.03D+00  1.07D+00  1.09D+00  9.23D-01
 E= -233.625211463948     Delta-E=       -0.000000000028 Rises=F Damp=F
 DIIS: error= 3.78D-08 at cycle  11 NSaved=  11.
 NSaved=11 IEnMin=11 EnMin= -233.625211463948     IErMin=11 ErrMin= 3.78D-08
 ErrMax= 3.78D-08  0.00D+00 EMaxC= 1.00D-01 BMatC= 7.20D-13 BMatP= 2.01D-11
 IDIUse=1 WtCom= 1.00D+00 WtEn= 0.00D+00
 Coeff-Com: -0.288D-06 0.115D-05 0.205D-04 0.339D-04 0.156D-03-0.101D-03
 Coeff-Com: -0.197D-02-0.107D-01-0.181D-02 0.134D+00 0.881D+00
 Coeff:     -0.288D-06 0.115D-05 0.205D-04 0.339D-04 0.156D-03-0.101D-03
 Coeff:     -0.197D-02-0.107D-01-0.181D-02 0.134D+00 0.881D+00
 Gap=     0.344 Goal=   None    Shift=    0.000
 RMSDP=5.67D-09 MaxDP=1.70D-07 DE=-2.78D-11 OVMax= 3.91D-07

 SCF Done:  E(RM062X) =  -233.625211464     A.U. after   11 cycles
            NFock= 11  Conv=0.57D-08     -V/T= 2.0040
 KE= 2.326910712129D+02 PE=-9.390862855088D+02 EE= 2.753604512797D+02
 Leave Link  502 at Tue Mar 12 00:34:32 2019, MaxMem=   671088640 cpu:             482.7 elap:              24.2
 (Enter /shared/centos7/gaussian/g16/l801.exe)
 DoSCS=F DFT=T ScalE2(SS,OS)=  1.000000  1.000000
 Range of M.O.s used for correlation:     1   260
 NBasis=   260 NAE=    21 NBE=    21 NFC=     0 NFV=     0
 NROrb=    260 NOA=    21 NOB=    21 NVA=   239 NVB=   239

 **** Warning!!: The largest alpha MO coefficient is  0.40176566D+02

 Leave Link  801 at Tue Mar 12 00:34:32 2019, MaxMem=   671088640 cpu:               0.3 elap:               0.0
 (Enter /shared/centos7/gaussian/g16/l1101.exe)
 Using compressed storage, NAtomX=    15.
 Will process     16 centers per pass.
 Leave Link 1101 at Tue Mar 12 00:34:32 2019, MaxMem=   671088640 cpu:               5.5 elap:               0.3
 (Enter /shared/centos7/gaussian/g16/l1102.exe)
 Symmetrizing basis deriv contribution to polar:
 IMax=3 JMax=2 DiffMx= 0.00D+00
 Leave Link 1102 at Tue Mar 12 00:34:32 2019, MaxMem=   671088640 cpu:               0.5 elap:               0.0
 (Enter /shared/centos7/gaussian/g16/l1110.exe)
 Forming Gx(P) for the SCF density, NAtomX=    15.
 Integral derivatives from FoFJK, PRISM(SPDF).
 Do as many integral derivatives as possible in FoFJK.
 G2DrvN: MDV=     671087424.
 G2DrvN: will do    16 centers at a time, making    1 passes.
 Calling FoFCou, ICntrl=  3107 FMM=F I1Cent=   0 AccDes= 0.00D+00.
 FoFJK:  IHMeth= 1 ICntrl=    3107 DoSepK=F KAlg= 0 I1Cent=           0 FoldK=F
 IRaf=         0 NMat=       1 IRICut=       1 DoRegI=T DoRafI=F ISym2E= 0 IDoP0=0 IntGTp=1.
 FoFCou: FMM=F IPFlag=           0 FMFlag=      100000 FMFlg1=           0
         NFxFlg=           0 DoJE=F BraDBF=F KetDBF=F FulRan=T
         wScrn=  0.000000 ICntrl=      3107 IOpCl=  0 I1Cent=           0 NGrid=           0
         NMat0=    1 NMatS0=      1 NMatT0=    0 NMatD0=    1 NMtDS0=    0 NMtDT0=    0
 Symmetry not used in FoFCou.
 End of G2Drv F.D. properties file   721 does not exist.
 End of G2Drv F.D. properties file   722 does not exist.
 End of G2Drv F.D. properties file   788 does not exist.
 Leave Link 1110 at Tue Mar 12 00:35:29 2019, MaxMem=   671088640 cpu:            1131.8 elap:              56.6
 (Enter /shared/centos7/gaussian/g16/l1002.exe)
 Minotr:  Closed shell wavefunction.
          IDoAtm=111111111111111
          Direct CPHF calculation.
          Differentiating once with respect to nuclear coordinates.
          Requested convergence is 1.0D-08 RMS, and 1.0D-07 maximum.
          Secondary convergence is 1.0D-12 RMS, and 1.0D-12 maximum.
          NewPWx=T KeepS1=F KeepF1=F KeepIn=T MapXYZ=F SortEE=F KeepMc=T.
         4562 words used for storage of precomputed grid.
 Keep R1 ints in memory in canonical form, NReq=597923364.
 FoFCou: FMM=F IPFlag=           0 FMFlag=           0 FMFlg1=           0
         NFxFlg=           0 DoJE=F BraDBF=F KetDBF=F FulRan=T
         wScrn=  0.000000 ICntrl=       600 IOpCl=  0 I1Cent=           0 NGrid=           0
         NMat0=    1 NMatS0=  33930 NMatT0=    0 NMatD0=    1 NMtDS0=    0 NMtDT0=    0
 Symmetry not used in FoFCou.
 Two-electron integral symmetry not used.
          MDV=     671088640 using IRadAn=       1.
          Solving linear equations simultaneously, MaxMat=       0.
          There are    48 degrees of freedom in the 1st order CPHF.  IDoFFX=6 NUNeed=     0.
     42 vectors produced by pass  0 Test12= 1.05D-14 2.08D-09 XBig12= 6.89D-02 5.88D-02.
 AX will form    42 AO Fock derivatives at one time.
     42 vectors produced by pass  1 Test12= 1.05D-14 2.08D-09 XBig12= 3.05D-03 1.09D-02.
     42 vectors produced by pass  2 Test12= 1.05D-14 2.08D-09 XBig12= 6.46D-05 1.06D-03.
     42 vectors produced by pass  3 Test12= 1.05D-14 2.08D-09 XBig12= 4.46D-07 9.78D-05.
     42 vectors produced by pass  4 Test12= 1.05D-14 2.08D-09 XBig12= 2.64D-09 5.18D-06.
     42 vectors produced by pass  5 Test12= 1.05D-14 2.08D-09 XBig12= 1.23D-11 3.70D-07.
     19 vectors produced by pass  6 Test12= 1.05D-14 2.08D-09 XBig12= 4.67D-14 1.75D-08.
 InvSVY:  IOpt=1 It=  1 EMax= 1.78D-15
 Solved reduced A of dimension   271 with    42 vectors.
 End of Minotr F.D. properties file   721 does not exist.
 End of Minotr F.D. properties file   722 does not exist.
 End of Minotr F.D. properties file   788 does not exist.
 Leave Link 1002 at Tue Mar 12 00:36:30 2019, MaxMem=   671088640 cpu:            1216.3 elap:              61.2
 (Enter /shared/centos7/gaussian/g16/l601.exe)
 Copying SCF densities to generalized density rwf, IOpCl= 0 IROHF=0.

 **********************************************************************

            Population analysis using the SCF density.

 **********************************************************************

 Orbital symmetries:
       Occupied  (A) (A) (A) (A) (A) (A) (A) (A) (A) (A) (A) (A)
                 (A) (A) (A) (A) (A) (A) (A) (A) (A)
       Virtual   (A) (A) (A) (A) (A) (A) (A) (A) (A) (A) (A) (A)
                 (A) (A) (A) (A) (A) (A) (A) (A) (A) (A) (A) (A)
                 (A) (A) (A) (A) (A) (A) (A) (A) (A) (A) (A) (A)
                 (A) (A) (A) (A) (A) (A) (A) (A) (A) (A) (A) (A)
                 (A) (A) (A) (A) (A) (A) (A) (A) (A) (A) (A) (A)
                 (A) (A) (A) (A) (A) (A) (A) (A) (A) (A) (A) (A)
                 (A) (A) (A) (A) (A) (A) (A) (A) (A) (A) (A) (A)
                 (A) (A) (A) (A) (A) (A) (A) (A) (A) (A) (A) (A)
                 (A) (A) (A) (A) (A) (A) (A) (A) (A) (A) (A) (A)
                 (A) (A) (A) (A) (A) (A) (A) (A) (A) (A) (A) (A)
                 (A) (A) (A) (A) (A) (A) (A) (A) (A) (A) (A) (A)
                 (A) (A) (A) (A) (A) (A) (A) (A) (A) (A) (A) (A)
                 (A) (A) (A) (A) (A) (A) (A) (A) (A) (A) (A) (A)
                 (A) (A) (A) (A) (A) (A) (A) (A) (A) (A) (A) (A)
                 (A) (A) (A) (A) (A) (A) (A) (A) (A) (A) (A) (A)
                 (A) (A) (A) (A) (A) (A) (A) (A) (A) (A) (A) (A)
                 (A) (A) (A) (A) (A) (A) (A) (A) (A) (A) (A) (A)
                 (A) (A) (A) (A) (A) (A) (A) (A) (A) (A) (A) (A)
                 (A) (A) (A) (A) (A) (A) (A) (A) (A) (A) (A) (A)
                 (A) (A) (A) (A) (A) (A) (A) (A) (A) (A) (A)
 The electronic state is 1-A.
 Alpha  occ. eigenvalues --  -19.61883 -10.58475 -10.57200 -10.52259 -10.51896
 Alpha  occ. eigenvalues --   -1.15676  -0.88286  -0.78896  -0.76366  -0.66215
 Alpha  occ. eigenvalues --   -0.57209  -0.53943  -0.53432  -0.49720  -0.46117
 Alpha  occ. eigenvalues --   -0.45467  -0.44151  -0.41440  -0.40884  -0.37592
 Alpha  occ. eigenvalues --   -0.32738
 Alpha virt. eigenvalues --    0.01674   0.03002   0.03482   0.03958   0.05589
 Alpha virt. eigenvalues --    0.06606   0.06978   0.07604   0.07801   0.09522
 Alpha virt. eigenvalues --    0.10167   0.11183   0.12179   0.13180   0.13690
 Alpha virt. eigenvalues --    0.15495   0.18059   0.19590   0.21181   0.21799
 Alpha virt. eigenvalues --    0.22749   0.24521   0.25188   0.25611   0.26141
 Alpha virt. eigenvalues --    0.27208   0.27494   0.28554   0.29741   0.30458
 Alpha virt. eigenvalues --    0.31497   0.34302   0.36530   0.38603   0.40325
 Alpha virt. eigenvalues --    0.42697   0.44725   0.45123   0.49520   0.50393
 Alpha virt. eigenvalues --    0.51029   0.53032   0.53967   0.55597   0.56470
 Alpha virt. eigenvalues --    0.56654   0.57808   0.58920   0.59430   0.60701
 Alpha virt. eigenvalues --    0.62106   0.62340   0.63762   0.65734   0.67909
 Alpha virt. eigenvalues --    0.70259   0.70730   0.71810   0.74083   0.77105
 Alpha virt. eigenvalues --    0.80322   0.83183   0.86118   0.88975   0.89524
 Alpha virt. eigenvalues --    0.91546   0.95860   0.97286   0.98253   1.00250
 Alpha virt. eigenvalues --    1.03923   1.05488   1.07278   1.08075   1.10301
 Alpha virt. eigenvalues --    1.12261   1.13267   1.13959   1.17018   1.17335
 Alpha virt. eigenvalues --    1.19518   1.20950   1.22054   1.22936   1.24825
 Alpha virt. eigenvalues --    1.26197   1.29900   1.30119   1.31131   1.32787
 Alpha virt. eigenvalues --    1.34588   1.35537   1.37577   1.38873   1.39767
 Alpha virt. eigenvalues --    1.40993   1.42284   1.44590   1.46575   1.48092
 Alpha virt. eigenvalues --    1.49167   1.50857   1.52245   1.54200   1.56811
 Alpha virt. eigenvalues --    1.58777   1.61193   1.61955   1.62065   1.65839
 Alpha virt. eigenvalues --    1.68458   1.69546   1.75904   1.86401   2.05522
 Alpha virt. eigenvalues --    2.11578   2.11950   2.25240   2.37488   2.39953
 Alpha virt. eigenvalues --    2.41321   2.47891   2.54513   2.55483   2.59987
 Alpha virt. eigenvalues --    2.62468   2.66045   2.70916   2.73033   2.77720
 Alpha virt. eigenvalues --    2.82582   2.88754   2.90941   2.96092   2.97496
 Alpha virt. eigenvalues --    2.99080   3.00502   3.03311   3.04182   3.08561
 Alpha virt. eigenvalues --    3.10466   3.12982   3.13820   3.14916   3.17390
 Alpha virt. eigenvalues --    3.19665   3.21578   3.23711   3.26870   3.29914
 Alpha virt. eigenvalues --    3.31938   3.34531   3.36983   3.38022   3.38873
 Alpha virt. eigenvalues --    3.42364   3.43861   3.46723   3.49792   3.52629
 Alpha virt. eigenvalues --    3.54031   3.56854   3.58314   3.61676   3.61869
 Alpha virt. eigenvalues --    3.64908   3.70964   3.72525   3.75796   3.78025
 Alpha virt. eigenvalues --    3.81275   3.81892   3.85062   3.87707   3.90015
 Alpha virt. eigenvalues --    3.93306   3.95442   3.99091   4.00966   4.02054
 Alpha virt. eigenvalues --    4.03632   4.07810   4.08120   4.12914   4.17610
 Alpha virt. eigenvalues --    4.18802   4.19755   4.20853   4.21749   4.23376
 Alpha virt. eigenvalues --    4.25054   4.26527   4.29136   4.30332   4.32839
 Alpha virt. eigenvalues --    4.35567   4.37055   4.39593   4.44859   4.49942
 Alpha virt. eigenvalues --    4.50737   4.51519   4.55449   4.57056   4.60060
 Alpha virt. eigenvalues --    4.61395   4.65457   4.72879   4.82901   4.94127
 Alpha virt. eigenvalues --    5.19290   5.27587   5.29844   5.33803   5.41939
 Alpha virt. eigenvalues --    5.48185   5.53711   5.56229   5.59054   5.61026
 Alpha virt. eigenvalues --    5.61591   5.64338   5.66914   5.69680   5.84078
 Alpha virt. eigenvalues --    5.91626   6.23273   6.50648   6.73829   7.21133
 Alpha virt. eigenvalues --    7.23074   7.36743   7.73314   7.78548  24.33086
 Alpha virt. eigenvalues --   24.41833  24.45379  24.51791  50.20678
          Condensed to atoms (all electrons):
               1          2          3          4          5          6
     1  O    8.244190   0.230924  -0.128511  -0.128101   0.110731  -0.043088
     2  C    0.230924   5.313850   0.172562   0.320977  -0.107366   0.467079
     3  C   -0.128511   0.172562   5.283903  -0.123950   0.015708  -0.066265
     4  C   -0.128101   0.320977  -0.123950   5.180315  -0.020010  -0.023952
     5  C    0.110731  -0.107366   0.015708  -0.020010   4.986497  -0.010216
     6  H   -0.043088   0.467079  -0.066265  -0.023952  -0.010216   0.520575
     7  H   -0.003709  -0.033546   0.430097  -0.014525  -0.004050   0.005834
     8  H   -0.008185  -0.016706   0.391988   0.008598   0.005215  -0.007413
     9  H    0.009666  -0.043919   0.420020  -0.001339  -0.000984  -0.002257
    10  H    0.013621  -0.047495  -0.009863   0.430025   0.001573  -0.006481
    11  H   -0.005107  -0.028355   0.020010   0.397394  -0.001192  -0.006368
    12  H   -0.010587  -0.006454  -0.016181   0.398732  -0.000692   0.005990
    13  H   -0.051545  -0.003666   0.000482  -0.007803   0.447659  -0.001664
    14  H   -0.044497   0.000672  -0.001660   0.002202   0.421446   0.006207
    15  H   -0.059217   0.010960   0.000171   0.002645   0.429886   0.000201
               7          8          9         10         11         12
     1  O   -0.003709  -0.008185   0.009666   0.013621  -0.005107  -0.010587
     2  C   -0.033546  -0.016706  -0.043919  -0.047495  -0.028355  -0.006454
     3  C    0.430097   0.391988   0.420020  -0.009863   0.020010  -0.016181
     4  C   -0.014525   0.008598  -0.001339   0.430025   0.397394   0.398732
     5  C   -0.004050   0.005215  -0.000984   0.001573  -0.001192  -0.000692
     6  H    0.005834  -0.007413  -0.002257  -0.006481  -0.006368   0.005990
     7  H    0.504078  -0.028742  -0.028478   0.000258  -0.000186   0.002088
     8  H   -0.028742   0.545834  -0.024584   0.000203  -0.000285  -0.000005
     9  H   -0.028478  -0.024584   0.528923   0.000462   0.000124  -0.000536
    10  H    0.000258   0.000203   0.000462   0.532517  -0.022559  -0.032235
    11  H   -0.000186  -0.000285   0.000124  -0.022559   0.521618  -0.025440
    12  H    0.002088  -0.000005  -0.000536  -0.032235  -0.025440   0.526917
    13  H   -0.000083  -0.003341  -0.000154   0.000019   0.000015  -0.000027
    14  H    0.000270  -0.001214   0.000039  -0.000006   0.000019  -0.000001
    15  H   -0.000147   0.000396   0.000045   0.000015  -0.000038   0.000025
              13         14         15
     1  O   -0.051545  -0.044497  -0.059217
     2  C   -0.003666   0.000672   0.010960
     3  C    0.000482  -0.001660   0.000171
     4  C   -0.007803   0.002202   0.002645
     5  C    0.447659   0.421446   0.429886
     6  H   -0.001664   0.006207   0.000201
     7  H   -0.000083   0.000270  -0.000147
     8  H   -0.003341  -0.001214   0.000396
     9  H   -0.000154   0.000039   0.000045
    10  H    0.000019  -0.000006   0.000015
    11  H    0.000015   0.000019  -0.000038
    12  H   -0.000027  -0.000001   0.000025
    13  H    0.575427  -0.052821  -0.028047
    14  H   -0.052821   0.575320  -0.021819
    15  H   -0.028047  -0.021819   0.528863
 Mulliken charges:
               1
     1  O   -0.126583
     2  C   -0.229518
     3  C   -0.388511
     4  C   -0.421209
     5  C   -0.274206
     6  H    0.161818
     7  H    0.170841
     8  H    0.138243
     9  H    0.142972
    10  H    0.139944
    11  H    0.150348
    12  H    0.158407
    13  H    0.125550
    14  H    0.115843
    15  H    0.136060
 Sum of Mulliken charges =  -0.00000
 Mulliken charges with hydrogens summed into heavy atoms:
               1
     1  O   -0.126583
     2  C   -0.067699
     3  C    0.063545
     4  C    0.027490
     5  C    0.103248
 APT charges:
               1
     1  O   -0.069996
     2  C   -0.306609
     3  C   -1.085551
     4  C   -1.188005
     5  C   -1.202600
     6  H    0.358126
     7  H    0.344782
     8  H    0.347732
     9  H    0.441663
    10  H    0.450638
    11  H    0.383409
    12  H    0.340012
    13  H    0.331651
    14  H    0.327899
    15  H    0.526850
 Sum of APT charges =  -0.00000
 APT charges with hydrogens summed into heavy atoms:
               1
     1  O   -0.069996
     2  C    0.051517
     3  C    0.048627
     4  C   -0.013947
     5  C   -0.016199
 Electronic spatial extent (au):  <R**2>=            501.4204
 Charge=             -0.0000 electrons
 Dipole moment (field-independent basis, Debye):
    X=              0.0422    Y=              0.9839    Z=              0.8432  Tot=              1.2965
 Quadrupole moment (field-independent basis, Debye-Ang):
   XX=            -30.8133   YY=            -34.5545   ZZ=            -33.7825
   XY=              0.3859   XZ=              0.2440   YZ=             -0.6260
 Traceless Quadrupole moment (field-independent basis, Debye-Ang):
   XX=              2.2368   YY=             -1.5044   ZZ=             -0.7324
   XY=              0.3859   XZ=              0.2440   YZ=             -0.6260
 Octapole moment (field-independent basis, Debye-Ang**2):
  XXX=              8.8253  YYY=             -2.7359  ZZZ=             -1.0565  XYY=              1.0514
  XXY=             -1.3282  XXZ=             -0.1274  XZZ=              0.4215  YZZ=             -0.5079
  YYZ=              0.2679  XYZ=             -0.4102
 Hexadecapole moment (field-independent basis, Debye-Ang**3):
 XXXX=           -394.8652 YYYY=           -212.1425 ZZZZ=            -71.9189 XXXY=            -10.1528
 XXXZ=             -6.9442 YYYX=              0.7949 YYYZ=              0.2027 ZZZX=              2.1009
 ZZZY=             -0.5987 XXYY=           -101.0846 XXZZ=            -79.5332 YYZZ=            -48.3550
 XXYZ=              2.5317 YYXZ=             -1.9114 ZZXY=             -0.8620
 N-N= 1.974095515522D+02 E-N=-9.390862869462D+02  KE= 2.326910712129D+02
  Exact polarizability:   0.000   0.000   0.000   0.000   0.000   0.000
 Approx polarizability:  63.799  -0.230  60.710  -0.286   0.810  61.225
 No NMR shielding tensors so no spin-rotation constants.
 Leave Link  601 at Tue Mar 12 00:36:30 2019, MaxMem=   671088640 cpu:               5.0 elap:               0.5
 (Enter /shared/centos7/gaussian/g16/l701.exe)
 ... and contract with generalized density number  0.
 Compute integral second derivatives.
 Leave Link  701 at Tue Mar 12 00:36:31 2019, MaxMem=   671088640 cpu:               6.6 elap:               0.4
 (Enter /shared/centos7/gaussian/g16/l702.exe)
 L702 exits ... SP integral derivatives will be done elsewhere.
 Leave Link  702 at Tue Mar 12 00:36:31 2019, MaxMem=   671088640 cpu:               0.3 elap:               0.0
 (Enter /shared/centos7/gaussian/g16/l703.exe)
 Integral derivatives from FoFJK, PRISM(SPDF).
 Compute integral second derivatives, UseDBF=F ICtDFT=           0.
 Calling FoFJK, ICntrl=    100147 FMM=F ISym2X=0 I1Cent= 0 IOpClX= 0 NMat=1 NMatS=1 NMatT=0.
 FoFJK:  IHMeth= 1 ICntrl=  100147 DoSepK=F KAlg= 0 I1Cent=           0 FoldK=F
 IRaf=         0 NMat=       1 IRICut=       1 DoRegI=T DoRafI=F ISym2E= 0 IDoP0=0 IntGTp=1.
 FoFCou: FMM=F IPFlag=           0 FMFlag=      100000 FMFlg1=         800
         NFxFlg=           0 DoJE=F BraDBF=F KetDBF=F FulRan=T
         wScrn=  0.000000 ICntrl=    100147 IOpCl=  0 I1Cent=           0 NGrid=           0
         NMat0=    1 NMatS0=      1 NMatT0=    0 NMatD0=    1 NMtDS0=    0 NMtDT0=    0
 Symmetry not used in FoFCou.
 Leave Link  703 at Tue Mar 12 00:37:45 2019, MaxMem=   671088640 cpu:            1478.8 elap:              74.0
 (Enter /shared/centos7/gaussian/g16/l716.exe)
 Dipole        = 1.65895407D-02 3.87105250D-01 3.31756386D-01
 Polarizability= 0.00000000D+00 0.00000000D+00 0.00000000D+00
                 0.00000000D+00 0.00000000D+00 0.00000000D+00
 ***** Axes restored to original set *****
 -------------------------------------------------------------------
 Center     Atomic                   Forces (Hartrees/Bohr)
 Number     Number              X              Y              Z
 -------------------------------------------------------------------
      1        8          -0.000000597   -0.000000837    0.000000533
      2        6          -0.000000210    0.000000418   -0.000000039
      3        6           0.000001239    0.000000400   -0.000000681
      4        6          -0.000000856    0.000001388   -0.000000057
      5        6          -0.000000267   -0.000001822    0.000000693
      6        1          -0.000000568    0.000000720    0.000000022
      7        1           0.000001605    0.000000039   -0.000000729
      8        1           0.000001711   -0.000000253   -0.000000678
      9        1           0.000001499    0.000001395   -0.000001117
     10        1          -0.000000664    0.000002405   -0.000000476
     11        1          -0.000001898    0.000001394    0.000000396
     12        1          -0.000000526    0.000001106   -0.000000130
     13        1           0.000000795   -0.000002173    0.000000354
     14        1          -0.000000530   -0.000001485    0.000000720
     15        1          -0.000000733   -0.000002695    0.000001189
 -------------------------------------------------------------------
 Cartesian Forces:  Max     0.000002695 RMS     0.000001100
 FormGI is forming the generalized inverse of G from B-inverse, IUseBI=4.
 Leave Link  716 at Tue Mar 12 00:37:45 2019, MaxMem=   671088640 cpu:               0.5 elap:               0.0
 (Enter /shared/centos7/gaussian/g16/l103.exe)

 GradGradGradGradGradGradGradGradGradGradGradGradGradGradGradGradGradGrad
 Berny optimization.
 Red2BG is reusing G-inverse.
 Internal  Forces:  Max     0.000000020 RMS     0.000000006
 Search for a local minimum.
 Step number   1 out of a maximum of   73 on scan point     1 out of    37
 All quantities printed in internal units (Hartrees-Bohrs-Radians)
 RMS Force = .58729D-08 SwitMx=.10000D-02 MixMth= 2
 Mixed Optimization -- En-DIIS/RFO-DIIS
 Second derivative matrix not updated -- analytic derivatives used.
 ITU=  0
     Eigenvalues ---    0.00173   0.00291   0.00676   0.04011   0.04329
     Eigenvalues ---    0.04422   0.04552   0.04567   0.05313   0.05717
     Eigenvalues ---    0.06770   0.08830   0.12026   0.12396   0.12587
     Eigenvalues ---    0.13206   0.13390   0.14223   0.14854   0.17939
     Eigenvalues ---    0.18706   0.19989   0.20512   0.25774   0.29222
     Eigenvalues ---    0.31099   0.31810   0.32643   0.33492   0.34132
     Eigenvalues ---    0.34314   0.34385   0.34621   0.34767   0.35102
     Eigenvalues ---    0.35248   0.39475   0.453061000.000001000.00000
     Eigenvalues --- 1000.000001000.000001000.000001000.000001000.00000
     Eigenvalues --- 1000.000001000.000001000.000001000.000001000.00000
     Eigenvalues --- 1000.000001000.000001000.000001000.000001000.00000
     Eigenvalues --- 1000.000001000.000001000.000001000.000001000.00000
     Eigenvalues --- 1000.000001000.000001000.00000
 RFO step:  Lambda= 0.00000000D+00 EMin= 1.73232649D-03
 Linear search not attempted -- first point.
 Iteration  1 RMS(Cart)=  0.00000112 RMS(Int)=  0.00000000
 Iteration  2 RMS(Cart)=  0.00000000 RMS(Int)=  0.00000000
 Iteration  1 RMS(Cart)=  0.00000000 RMS(Int)=  0.00000000
 ITry= 1 IFail=0 DXMaxC= 4.10D-06 DCOld= 1.00D+10 DXMaxT= 3.00D-01 DXLimC= 3.00D+00 Rises=F
 Variable       Old X    -DE/DX   Delta X   Delta X   Delta X     New X
                                 (Linear)    (Quad)   (Total)
    R1        2.67539  -0.00000   0.00000  -0.00000  -0.00000   2.67539
    R2        2.65187  -0.00000   0.00000  -0.00000  -0.00000   2.65187
    R3        2.87851   0.00000   0.00000   0.00000   0.00000   2.87851
    R4        2.86451  -0.00000   0.00000  -0.00000  -0.00000   2.86451
    R5        2.07759   0.00000   0.00000  -0.00000  -0.00000   2.07759
    R6        2.06155   0.00000   0.00000  -0.00000  -0.00000   2.06155
    R7        2.05800   0.00000   0.00000   0.00000   0.00000   2.05800
    R8        2.05938  -0.00000   0.00000  -0.00000  -0.00000   2.05938
    R9        2.05861   0.00000   0.00000   0.00000   0.00000   2.05861
   R10        2.05682  -0.00000   0.00000  -0.00000  -0.00000   2.05682
   R11        2.06054   0.00000   0.00000   0.00000   0.00000   2.06054
   R12        2.06653  -0.00000   0.00000  -0.00000  -0.00000   2.06653
   R13        2.07139   0.00000   0.00000   0.00000   0.00000   2.07139
   R14        2.05519   0.00000   0.00000   0.00000   0.00000   2.05519
    A1        2.00014  -0.00000   0.00000  -0.00000  -0.00000   2.00014
    A2        1.95522  -0.00000   0.00000  -0.00000  -0.00000   1.95522
    A3        1.85646  -0.00000   0.00000   0.00000   0.00000   1.85646
    A4        1.89076   0.00000   0.00000   0.00000   0.00000   1.89076
    A5        1.94901   0.00000   0.00000   0.00000   0.00000   1.94901
    A6        1.90231   0.00000   0.00000   0.00000   0.00000   1.90231
    A7        1.90863  -0.00000   0.00000  -0.00000  -0.00000   1.90863
    A8        1.91387  -0.00000   0.00000  -0.00000  -0.00000   1.91387
    A9        1.95591   0.00000   0.00000  -0.00000  -0.00000   1.95591
   A10        1.92150  -0.00000   0.00000   0.00000   0.00000   1.92150
   A11        1.89628   0.00000   0.00000   0.00000   0.00000   1.89628
   A12        1.89468  -0.00000   0.00000  -0.00000  -0.00000   1.89468
   A13        1.88027   0.00000   0.00000   0.00000   0.00000   1.88027
   A14        1.93123   0.00000   0.00000   0.00000   0.00000   1.93123
   A15        1.92626  -0.00000   0.00000  -0.00000  -0.00000   1.92626
   A16        1.91521   0.00000   0.00000   0.00000   0.00000   1.91521
   A17        1.90150  -0.00000   0.00000  -0.00000  -0.00000   1.90150
   A18        1.89636  -0.00000   0.00000   0.00000   0.00000   1.89636
   A19        1.89258  -0.00000   0.00000  -0.00000  -0.00000   1.89258
   A20        1.95826   0.00000   0.00000   0.00000   0.00000   1.95826
   A21        1.93986  -0.00000   0.00000  -0.00000  -0.00000   1.93986
   A22        1.87283   0.00000   0.00000   0.00000   0.00000   1.87283
   A23        1.89605  -0.00000   0.00000  -0.00000  -0.00000   1.89605
   A24        1.89537  -0.00000   0.00000  -0.00000  -0.00000   1.89537
   A25        1.90020   0.00000   0.00000   0.00000   0.00000   1.90020
    D1        1.16720   0.00000   0.00000   0.00000   0.00000   1.16720
    D2       -2.98190   0.00000   0.00000   0.00000   0.00000  -2.98190
    D3       -0.93172   0.00000   0.00000   0.00000   0.00000  -0.93172
    D4       -1.25307   0.00000   0.00000   0.00000   0.00000  -1.25307
    D5        0.87385   0.00000   0.00000   0.00000   0.00000   0.87385
    D6        2.94962  -0.00000   0.00000   0.00000   0.00000   2.94962
    D7        0.98307   0.00000   0.00000   0.00000   0.00000   0.98307
    D8       -1.12429  -0.00000   0.00000   0.00000   0.00000  -1.12428
    D9        3.06656  -0.00000   0.00000   0.00000   0.00000   3.06656
   D10       -1.09734   0.00000   0.00000   0.00000   0.00000  -1.09734
   D11        3.07849  -0.00000   0.00000   0.00000   0.00000   3.07849
   D12        0.98615  -0.00000   0.00000   0.00000   0.00000   0.98615
   D13        3.07525   0.00000   0.00000   0.00000   0.00000   3.07525
   D14        0.96789   0.00000   0.00000   0.00000   0.00000   0.96789
   D15       -1.12444   0.00000   0.00000   0.00000   0.00000  -1.12444
   D16        3.09055  -0.00000   0.00000  -0.00000  -0.00000   3.09055
   D17        0.98450  -0.00000   0.00000  -0.00000  -0.00000   0.98450
   D18       -1.10018  -0.00000   0.00000  -0.00000  -0.00000  -1.10018
   D19       -1.05463  -0.00000   0.00000  -0.00000  -0.00000  -1.05463
   D20        3.12251  -0.00000   0.00000  -0.00000  -0.00000   3.12251
   D21        1.03783   0.00000   0.00000  -0.00000  -0.00000   1.03783
   D22        1.05228  -0.00000   0.00000  -0.00000  -0.00000   1.05228
   D23       -1.05377  -0.00000   0.00000  -0.00000  -0.00000  -1.05377
   D24       -3.13845   0.00000   0.00000  -0.00000  -0.00000  -3.13845
         Item               Value     Threshold  Converged?
 Maximum Force            0.000000     0.000450     YES
 RMS     Force            0.000000     0.000300     YES
 Maximum Displacement     0.000004     0.001800     YES
 RMS     Displacement     0.000001     0.001200     YES
 Predicted change in Energy=-4.648658D-14
 Optimization completed.
    -- Stationary point found.
                           ----------------------------
                           !   Optimized Parameters   !
                           ! (Angstroms and Degrees)  !
 --------------------------                            --------------------------
 ! Name  Definition              Value          Derivative Info.                !
 --------------------------------------------------------------------------------
 ! R1    R(1,2)                  1.4158         -DE/DX =    0.0                 !
 ! R2    R(1,5)                  1.4033         -DE/DX =    0.0                 !
 ! R3    R(2,3)                  1.5232         -DE/DX =    0.0                 !
 ! R4    R(2,4)                  1.5158         -DE/DX =    0.0                 !
 ! R5    R(2,6)                  1.0994         -DE/DX =    0.0                 !
 ! R6    R(3,7)                  1.0909         -DE/DX =    0.0                 !
 ! R7    R(3,8)                  1.089          -DE/DX =    0.0                 !
 ! R8    R(3,9)                  1.0898         -DE/DX =    0.0                 !
 ! R9    R(4,10)                 1.0894         -DE/DX =    0.0                 !
 ! R10   R(4,11)                 1.0884         -DE/DX =    0.0                 !
 ! R11   R(4,12)                 1.0904         -DE/DX =    0.0                 !
 ! R12   R(5,13)                 1.0936         -DE/DX =    0.0                 !
 ! R13   R(5,14)                 1.0961         -DE/DX =    0.0                 !
 ! R14   R(5,15)                 1.0876         -DE/DX =    0.0                 !
 ! A1    A(2,1,5)              114.5994         -DE/DX =    0.0                 !
 ! A2    A(1,2,3)              112.0256         -DE/DX =    0.0                 !
 ! A3    A(1,2,4)              106.3672         -DE/DX =    0.0                 !
 ! A4    A(1,2,6)              108.3324         -DE/DX =    0.0                 !
 ! A5    A(3,2,4)              111.6702         -DE/DX =    0.0                 !
 ! A6    A(3,2,6)              108.9941         -DE/DX =    0.0                 !
 ! A7    A(4,2,6)              109.3567         -DE/DX =    0.0                 !
 ! A8    A(2,3,7)              109.6568         -DE/DX =    0.0                 !
 ! A9    A(2,3,8)              112.0657         -DE/DX =    0.0                 !
 ! A10   A(2,3,9)              110.0941         -DE/DX =    0.0                 !
 ! A11   A(7,3,8)              108.6488         -DE/DX =    0.0                 !
 ! A12   A(7,3,9)              108.5573         -DE/DX =    0.0                 !
 ! A13   A(8,3,9)              107.7313         -DE/DX =    0.0                 !
 ! A14   A(2,4,10)             110.6511         -DE/DX =    0.0                 !
 ! A15   A(2,4,11)             110.3663         -DE/DX =    0.0                 !
 ! A16   A(2,4,12)             109.7335         -DE/DX =    0.0                 !
 ! A17   A(10,4,11)            108.948          -DE/DX =    0.0                 !
 ! A18   A(10,4,12)            108.6532         -DE/DX =    0.0                 !
 ! A19   A(11,4,12)            108.4369         -DE/DX =    0.0                 !
 ! A20   A(1,5,13)             112.1999         -DE/DX =    0.0                 !
 ! A21   A(1,5,14)             111.1458         -DE/DX =    0.0                 !
 ! A22   A(1,5,15)             107.3052         -DE/DX =    0.0                 !
 ! A23   A(13,5,14)            108.6358         -DE/DX =    0.0                 !
 ! A24   A(13,5,15)            108.5968         -DE/DX =    0.0                 !
 ! A25   A(14,5,15)            108.8734         -DE/DX =    0.0                 !
 ! D1    D(5,1,2,3)             66.8754         -DE/DX =    0.0                 !
 ! D2    D(5,1,2,4)           -170.8503         -DE/DX =    0.0                 !
 ! D3    D(5,1,2,6)            -53.3837         -DE/DX =    0.0                 !
 ! D4    D(2,1,5,13)           -71.7954         -DE/DX =    0.0                 !
 ! D5    D(2,1,5,14)            50.0681         -DE/DX =    0.0                 !
 ! D6    D(2,1,5,15)           169.001          -DE/DX =    0.0                 !
 ! D7    D(1,2,3,7)             56.326          -DE/DX =    0.0                 !
 ! D8    D(1,2,3,8)            -64.4168         -DE/DX =    0.0                 !
 ! D9    D(1,2,3,9)            175.7012         -DE/DX =    0.0                 !
 ! D10   D(4,2,3,7)            -62.8728         -DE/DX =    0.0                 !
 ! D11   D(4,2,3,8)            176.3844         -DE/DX =    0.0                 !
 ! D12   D(4,2,3,9)             56.5024         -DE/DX =    0.0                 !
 ! D13   D(6,2,3,7)            176.199          -DE/DX =    0.0                 !
 ! D14   D(6,2,3,8)             55.4562         -DE/DX =    0.0                 !
 ! D15   D(6,2,3,9)            -64.4258         -DE/DX =    0.0                 !
 ! D16   D(1,2,4,10)           177.0752         -DE/DX =    0.0                 !
 ! D17   D(1,2,4,11)            56.4075         -DE/DX =    0.0                 !
 ! D18   D(1,2,4,12)           -63.0356         -DE/DX =    0.0                 !
 ! D19   D(3,2,4,10)           -60.4258         -DE/DX =    0.0                 !
 ! D20   D(3,2,4,11)           178.9065         -DE/DX =    0.0                 !
 ! D21   D(3,2,4,12)            59.4633         -DE/DX =    0.0                 !
 ! D22   D(6,2,4,10)            60.2911         -DE/DX =    0.0                 !
 ! D23   D(6,2,4,11)           -60.3766         -DE/DX =    0.0                 !
 ! D24   D(6,2,4,12)          -179.8198         -DE/DX =    0.0                 !
 --------------------------------------------------------------------------------
 Lowest energy point so far.  Saving SCF results.
 Iteration  1 RMS(Cart)=  0.02688724 RMS(Int)=  0.01396861
 Iteration  2 RMS(Cart)=  0.00144013 RMS(Int)=  0.01390867
 Iteration  3 RMS(Cart)=  0.00007489 RMS(Int)=  0.01390861
 Iteration  4 RMS(Cart)=  0.00000404 RMS(Int)=  0.01390861
 Iteration  5 RMS(Cart)=  0.00000026 RMS(Int)=  0.01390861
 Iteration  1 RMS(Cart)=  0.01080478 RMS(Int)=  0.00556512
 Iteration  2 RMS(Cart)=  0.00433502 RMS(Int)=  0.00619533
 Iteration  3 RMS(Cart)=  0.00173425 RMS(Int)=  0.00674569
 Iteration  4 RMS(Cart)=  0.00069298 RMS(Int)=  0.00700099
 Iteration  5 RMS(Cart)=  0.00027677 RMS(Int)=  0.00710784
 Iteration  6 RMS(Cart)=  0.00011052 RMS(Int)=  0.00715124
 Iteration  7 RMS(Cart)=  0.00004413 RMS(Int)=  0.00716868
 Iteration  8 RMS(Cart)=  0.00001762 RMS(Int)=  0.00717566
 Iteration  9 RMS(Cart)=  0.00000703 RMS(Int)=  0.00717845
 Iteration 10 RMS(Cart)=  0.00000281 RMS(Int)=  0.00717957
 Iteration 11 RMS(Cart)=  0.00000112 RMS(Int)=  0.00718001
 Iteration 12 RMS(Cart)=  0.00000045 RMS(Int)=  0.00718019
 GradGradGradGradGradGradGradGradGradGradGradGradGradGradGradGradGradGrad

 Leave Link  103 at Tue Mar 12 00:37:45 2019, MaxMem=   671088640 cpu:               0.7 elap:               0.1
 (Enter /shared/centos7/gaussian/g16/l202.exe)
                          Input orientation:                          
 ---------------------------------------------------------------------
 Center     Atomic      Atomic             Coordinates (Angstroms)
 Number     Number       Type             X           Y           Z
 ---------------------------------------------------------------------
      1          8           0        0.677494   -0.641170   -0.319336
      2          6           0       -0.418751   -0.020092    0.326331
      3          6           0       -0.572719    1.438356   -0.085390
      4          6           0       -1.644615   -0.835779   -0.033773
      5          6           0        1.934962   -0.145529    0.058014
      6          1           0       -0.253994   -0.069886    1.412196
      7          1           0       -0.669382    1.505251   -1.169968
      8          1           0        0.277380    2.043435    0.226451
      9          1           0       -1.467236    1.863357    0.369403
     10          1           0       -2.527448   -0.446123    0.471704
     11          1           0       -1.504345   -1.876639    0.251897
     12          1           0       -1.811931   -0.793211   -1.110415
     13          1           0        2.106932    0.830517   -0.404460
     14          1           0        1.975524    0.051899    1.136318
     15          1           0        2.711101   -0.829215   -0.278492
 ---------------------------------------------------------------------
                    Distance matrix (angstroms):
                    1          2          3          4          5
     1  O    0.000000
     2  C    1.415760   0.000000
     3  C    2.437661   1.523250   0.000000
     4  C    2.347682   1.515838   2.514620   0.000000
     5  C    1.403310   2.372276   2.969465   3.646676   0.000000
     6  H    2.047495   1.099420   2.149219   2.147381   2.575085
     7  H    2.672970   2.151372   1.090931   2.778928   3.318979
     8  H    2.768588   2.180073   1.089052   3.471549   2.750911
     9  H    3.368514   2.156052   1.089781   2.734840   3.963274
    10  H    3.306878   2.156210   2.771747   1.089373   4.491615
    11  H    2.571597   2.151934   3.459896   1.088427   3.855278
    12  H    2.616517   2.145438   2.750675   1.090396   3.977930
    13  H    2.053388   2.763452   2.766189   4.121657   1.093674
    14  H    2.069821   2.528599   3.147757   3.906725   1.096979
    15  H    2.042691   3.288839   3.995327   4.362590   1.087682
                    6          7          8          9         10
     6  H    0.000000
     7  H    3.053060   0.000000
     8  H    2.480821   1.770872   0.000000
     9  H    2.509343   1.770445   1.759702   0.000000
    10  H    2.488910   3.155212   3.758339   2.543269   0.000000
    11  H    2.484759   3.762452   4.306062   3.742026   1.772408
    12  H    3.051873   2.567468   3.768155   3.060397   1.770744
    13  H    3.112063   2.957902   2.283961   3.800039   4.886200
    14  H    2.249821   3.798252   2.770878   3.965115   4.578919
    15  H    3.496683   4.203823   3.798694   5.012805   5.305841
                   11         12         13         14         15
    11  H    0.000000
    12  H    1.767574   0.000000
    13  H    4.560792   4.300273   0.000000
    14  H    4.075653   4.484065   1.731332   0.000000
    15  H    4.375888   4.599045   1.770762   1.821845   0.000000
 Stoichiometry    C4H10O
 Framework group  C1[X(C4H10O)]
 Deg. of freedom    39
 Full point group                 C1      NOp   1
 RotChk:  IX=0 Diff= 2.22D-02
 Largest Abelian subgroup         C1      NOp   1
 Largest concise Abelian subgroup C1      NOp   1
                         Standard orientation:                         
 ---------------------------------------------------------------------
 Center     Atomic      Atomic             Coordinates (Angstroms)
 Number     Number       Type             X           Y           Z
 ---------------------------------------------------------------------
      1          8           0        0.676981   -0.640921   -0.305861
      2          6           0       -0.421041   -0.009389    0.326510
      3          6           0       -0.572741    1.442650   -0.108073
      4          6           0       -1.646189   -0.829826   -0.025139
      5          6           0        1.933481   -0.140244    0.068053
      6          1           0       -0.259950   -0.042592    1.413558
      7          1           0       -0.665732    1.492934   -1.193869
      8          1           0        0.276678    2.051972    0.197291
      9          1           0       -1.468517    1.875085    0.337135
     10          1           0       -2.530472   -0.431961    0.471329
     11          1           0       -1.507510   -1.866254    0.276951
     12          1           0       -1.809874   -0.803705   -1.102863
     13          1           0        2.107592    0.828488   -0.408775
     14          1           0        1.970553    0.073699    1.143328
     15          1           0        2.710325   -0.829450   -0.255307
 ---------------------------------------------------------------------
 Rotational constants (GHZ):           7.7345749           3.8563652           2.8532294
 Leave Link  202 at Tue Mar 12 00:37:45 2019, MaxMem=   671088640 cpu:               0.2 elap:               0.0
 (Enter /shared/centos7/gaussian/g16/l301.exe)
 Standard basis: 6-311+G(2df,2p) (5D, 7F)
 Ernie: Thresh=  0.10000D-02 Tol=  0.10000D-05 Strict=F.
 There are   285 symmetry adapted cartesian basis functions of A   symmetry.
 There are   260 symmetry adapted basis functions of A   symmetry.
   260 basis functions,   370 primitive gaussians,   285 cartesian basis functions
    21 alpha electrons       21 beta electrons
       nuclear repulsion energy       197.4942303116 Hartrees.
 IExCor= 4336 DFT=T Ex+Corr=M062X ExCW=0 ScaHFX=  0.540000
 ScaDFX=  1.000000  1.000000  1.000000  1.000000 ScalE2=  1.000000  1.000000
 IRadAn=      5 IRanWt=     -1 IRanGd=            0 ICorTp=0 IEmpDi=  4
 NAtoms=   15 NActive=   15 NUniq=   15 SFac= 1.00D+00 NAtFMM=   60 NAOKFM=F Big=F
 Integral buffers will be    131072 words long.
 Raffenetti 2 integral format.
 Two-electron integral symmetry is turned on.
 Leave Link  301 at Tue Mar 12 00:37:45 2019, MaxMem=   671088640 cpu:               1.0 elap:               0.1
 (Enter /shared/centos7/gaussian/g16/l302.exe)
 NPDir=0 NMtPBC=     1 NCelOv=     1 NCel=       1 NClECP=     1 NCelD=      1
         NCelK=      1 NCelE2=     1 NClLst=     1 CellRange=     0.0.
 One-electron integrals computed using PRISM.
 One-electron integral symmetry used in STVInt
 NBasis=   260 RedAO= T EigKep=  4.52D-05  NBF=   260
 NBsUse=   260 1.00D-06 EigRej= -1.00D+00 NBFU=   260
 Precomputing XC quadrature grid using
 IXCGrd= 4 IRadAn=           5 IRanWt=          -1 IRanGd=           0 AccXCQ= 0.00D+00.
 Generated NRdTot=       0 NPtTot=           0 NUsed=           0 NTot=          32
 NSgBfM=   285   285   285   285   285 MxSgAt=    15 MxSgA2=    15.
 Leave Link  302 at Tue Mar 12 00:37:45 2019, MaxMem=   671088640 cpu:               6.1 elap:               0.3
 (Enter /shared/centos7/gaussian/g16/l303.exe)
 DipDrv:  MaxL=1.
 Leave Link  303 at Tue Mar 12 00:37:45 2019, MaxMem=   671088640 cpu:               0.5 elap:               0.0
 (Enter /shared/centos7/gaussian/g16/l401.exe)
 Initial guess from the checkpoint file:  "/scratch/underkoffler.c/gaussian_scratch/Gau-43485.chk"
 B after Tr=     0.000000    0.000000    0.000000
         Rot=    0.999985    0.005254    0.000961    0.001521 Ang=   0.64 deg.
 Guess basis will be translated and rotated to current coordinates.
 JPrj=2 DoOrth=T DoCkMO=T.
 Generating alternative initial guess.
 ExpMin= 4.38D-02 ExpMax= 8.59D+03 ExpMxC= 1.30D+03 IAcc=2 IRadAn=         4 AccDes= 0.00D+00
 Harris functional with IExCor= 1009 and IRadAn=       4 diagonalized for initial guess.
 HarFok:  IExCor= 1009 AccDes= 0.00D+00 IRadAn=         4 IDoV= 1 UseB2=F ITyADJ=14
 ICtDFT=  3500011 ScaDFX=  1.000000  1.000000  1.000000  1.000000
 FoFCou: FMM=F IPFlag=           0 FMFlag=      100000 FMFlg1=           0
         NFxFlg=           0 DoJE=T BraDBF=F KetDBF=T FulRan=T
         wScrn=  0.000000 ICntrl=       500 IOpCl=  0 I1Cent=   200000004 NGrid=           0
         NMat0=    1 NMatS0=      1 NMatT0=    0 NMatD0=    1 NMtDS0=    0 NMtDT0=    0
 Petite list used in FoFCou.
 Harris En= -233.580923398087    
 Leave Link  401 at Tue Mar 12 00:37:46 2019, MaxMem=   671088640 cpu:              12.5 elap:               0.7
 (Enter /shared/centos7/gaussian/g16/l502.exe)
 Integral symmetry usage will be decided dynamically.
 Closed shell SCF:
 Using DIIS extrapolation, IDIIS=  1040.
 NGot=   671088640 LenX=   670917793 LenY=   670836127
 Requested convergence on RMS density matrix=1.00D-08 within 128 cycles.
 Requested convergence on MAX density matrix=1.00D-06.
 Requested convergence on             energy=1.00D-06.
 No special actions if energy rises.
 Fock matrices will be formed incrementally for  20 cycles.

 Cycle   1  Pass 1  IDiag  1:
 FoFJK:  IHMeth= 1 ICntrl=       0 DoSepK=F KAlg= 0 I1Cent=           0 FoldK=F
 IRaf= 980000000 NMat=       1 IRICut=       1 DoRegI=T DoRafI=F ISym2E= 0 IDoP0=0 IntGTp=1.
 FoFCou: FMM=F IPFlag=           0 FMFlag=      100000 FMFlg1=           0
         NFxFlg=           0 DoJE=F BraDBF=F KetDBF=F FulRan=T
         wScrn=  0.000000 ICntrl=         0 IOpCl=  0 I1Cent=           0 NGrid=           0
         NMat0=    1 NMatS0=      1 NMatT0=    0 NMatD0=    1 NMtDS0=    0 NMtDT0=    0
 Symmetry not used in FoFCou.
 E= -233.621832009328    
 DIIS: error= 2.64D-03 at cycle   1 NSaved=   1.
 NSaved= 1 IEnMin= 1 EnMin= -233.621832009328     IErMin= 1 ErrMin= 2.64D-03
 ErrMax= 2.64D-03  0.00D+00 EMaxC= 1.00D-01 BMatC= 1.63D-03 BMatP= 1.63D-03
 IDIUse=3 WtCom= 9.74D-01 WtEn= 2.64D-02
 Coeff-Com:  0.100D+01
 Coeff-En:   0.100D+01
 Coeff:      0.100D+01
 Gap=     0.624 Goal=   None    Shift=    0.000
 GapD=    0.624 DampG=2.000 DampE=1.000 DampFc=2.0000 IDamp=-1.
 RMSDP=2.12D-04 MaxDP=5.82D-03              OVMax= 1.04D-02

 Cycle   2  Pass 1  IDiag  1:
 RMSU=  2.12D-04    CP:  1.00D+00
 E= -233.623978921055     Delta-E=       -0.002146911727 Rises=F Damp=F
 DIIS: error= 4.40D-04 at cycle   2 NSaved=   2.
 NSaved= 2 IEnMin= 2 EnMin= -233.623978921055     IErMin= 2 ErrMin= 4.40D-04
 ErrMax= 4.40D-04  0.00D+00 EMaxC= 1.00D-01 BMatC= 4.22D-05 BMatP= 1.63D-03
 IDIUse=3 WtCom= 9.96D-01 WtEn= 4.40D-03
 Coeff-Com: -0.125D+00 0.113D+01
 Coeff-En:   0.000D+00 0.100D+01
 Coeff:     -0.125D+00 0.112D+01
 Gap=     0.342 Goal=   None    Shift=    0.000
 RMSDP=4.73D-05 MaxDP=1.80D-03 DE=-2.15D-03 OVMax= 3.36D-03

 Cycle   3  Pass 1  IDiag  1:
 RMSU=  3.40D-05    CP:  1.00D+00  1.16D+00
 E= -233.624074294111     Delta-E=       -0.000095373056 Rises=F Damp=F
 DIIS: error= 1.16D-04 at cycle   3 NSaved=   3.
 NSaved= 3 IEnMin= 3 EnMin= -233.624074294111     IErMin= 3 ErrMin= 1.16D-04
 ErrMax= 1.16D-04  0.00D+00 EMaxC= 1.00D-01 BMatC= 3.02D-06 BMatP= 4.22D-05
 IDIUse=3 WtCom= 9.99D-01 WtEn= 1.16D-03
 Coeff-Com: -0.314D-01 0.169D+00 0.862D+00
 Coeff-En:   0.000D+00 0.000D+00 0.100D+01
 Coeff:     -0.314D-01 0.169D+00 0.862D+00
 Gap=     0.342 Goal=   None    Shift=    0.000
 RMSDP=1.06D-05 MaxDP=3.66D-04 DE=-9.54D-05 OVMax= 5.95D-04

 Cycle   4  Pass 1  IDiag  1:
 RMSU=  8.74D-06    CP:  1.00D+00  1.18D+00  1.06D+00
 E= -233.624077767112     Delta-E=       -0.000003473001 Rises=F Damp=F
 DIIS: error= 4.13D-05 at cycle   4 NSaved=   4.
 NSaved= 4 IEnMin= 4 EnMin= -233.624077767112     IErMin= 4 ErrMin= 4.13D-05
 ErrMax= 4.13D-05  0.00D+00 EMaxC= 1.00D-01 BMatC= 8.45D-07 BMatP= 3.02D-06
 IDIUse=1 WtCom= 1.00D+00 WtEn= 0.00D+00
 Coeff-Com:  0.824D-03-0.543D-01 0.323D+00 0.731D+00
 Coeff:      0.824D-03-0.543D-01 0.323D+00 0.731D+00
 Gap=     0.342 Goal=   None    Shift=    0.000
 RMSDP=3.68D-06 MaxDP=1.60D-04 DE=-3.47D-06 OVMax= 2.34D-04

 Cycle   5  Pass 1  IDiag  1:
 RMSU=  2.36D-06    CP:  1.00D+00  1.19D+00  1.14D+00  9.69D-01
 E= -233.624078516603     Delta-E=       -0.000000749491 Rises=F Damp=F
 DIIS: error= 1.58D-05 at cycle   5 NSaved=   5.
 NSaved= 5 IEnMin= 5 EnMin= -233.624078516603     IErMin= 5 ErrMin= 1.58D-05
 ErrMax= 1.58D-05  0.00D+00 EMaxC= 1.00D-01 BMatC= 8.31D-08 BMatP= 8.45D-07
 IDIUse=1 WtCom= 1.00D+00 WtEn= 0.00D+00
 Coeff-Com:  0.255D-02-0.356D-01 0.742D-01 0.315D+00 0.644D+00
 Coeff:      0.255D-02-0.356D-01 0.742D-01 0.315D+00 0.644D+00
 Gap=     0.342 Goal=   None    Shift=    0.000
 RMSDP=1.23D-06 MaxDP=3.75D-05 DE=-7.49D-07 OVMax= 8.64D-05

 Cycle   6  Pass 1  IDiag  1:
 RMSU=  7.84D-07    CP:  1.00D+00  1.19D+00  1.16D+00  9.95D-01  8.35D-01
 E= -233.624078584614     Delta-E=       -0.000000068011 Rises=F Damp=F
 DIIS: error= 4.05D-06 at cycle   6 NSaved=   6.
 NSaved= 6 IEnMin= 6 EnMin= -233.624078584614     IErMin= 6 ErrMin= 4.05D-06
 ErrMax= 4.05D-06  0.00D+00 EMaxC= 1.00D-01 BMatC= 5.15D-09 BMatP= 8.31D-08
 IDIUse=1 WtCom= 1.00D+00 WtEn= 0.00D+00
 Coeff-Com:  0.959D-03-0.110D-01 0.103D-01 0.783D-01 0.256D+00 0.665D+00
 Coeff:      0.959D-03-0.110D-01 0.103D-01 0.783D-01 0.256D+00 0.665D+00
 Gap=     0.342 Goal=   None    Shift=    0.000
 RMSDP=2.82D-07 MaxDP=1.29D-05 DE=-6.80D-08 OVMax= 2.31D-05

 Cycle   7  Pass 1  IDiag  1:
 RMSU=  2.02D-07    CP:  1.00D+00  1.19D+00  1.16D+00  1.01D+00  8.73D-01
                    CP:  9.48D-01
 E= -233.624078588654     Delta-E=       -0.000000004040 Rises=F Damp=F
 DIIS: error= 1.05D-06 at cycle   7 NSaved=   7.
 NSaved= 7 IEnMin= 7 EnMin= -233.624078588654     IErMin= 7 ErrMin= 1.05D-06
[...]
           D7          57.70547  56.35399
           D8         -63.01757 -64.38535
           D9         177.05000 175.73081
           D10        -61.35037 -62.84574
           D11        177.92659 176.41492
           D12         57.99417  56.53108
           D13        177.75335 176.22558
           D14         57.03031  55.48624
           D15        -62.90211 -64.39760
           D16        178.15904 177.08239
           D17         57.39957  56.41416
           D18        -62.00647 -63.02892
           D19        -59.59813 -60.42212
           D20        179.64240 178.90965
           D21         60.23636  59.46656
           D22         61.20224  60.29590
           D23        -59.55723 -60.37233
           D24       -178.96327-179.81541
 Largest change from initial coordinates is atom    7       0.000 Angstoms.
 GradGradGradGradGradGradGradGradGradGradGradGradGradGradGradGradGradGrad

 Leave Link  103 at Tue Mar 12 01:35:12 2019, MaxMem=   671088640 cpu:               0.5 elap:               0.1
 (Enter /shared/centos7/gaussian/g16/l202.exe)
                          Input orientation:                          
 ---------------------------------------------------------------------
 Center     Atomic      Atomic             Coordinates (Angstroms)
 Number     Number       Type             X           Y           Z
 ---------------------------------------------------------------------
      1          8           0        0.652236   -0.086109   -0.790740
      2          6           0       -0.362994   -0.199049    0.189533
      3          6           0       -0.677890    1.140574    0.842611
      4          6           0       -1.574505   -0.776966   -0.514742
      5          6           0        1.918882    0.243418   -0.284452
      6          1           0       -0.020852   -0.902244    0.962296
      7          1           0       -0.954371    1.866342    0.076495
      8          1           0        0.169958    1.531789    1.403088
      9          1           0       -1.512269    1.032537    1.535257
     10          1           0       -2.387159   -0.942017    0.191716
     11          1           0       -1.321201   -1.723117   -0.989393
     12          1           0       -1.917138   -0.085529   -1.285111
     13          1           0        1.970599    1.281424    0.055761
     14          1           0        2.194348   -0.412635    0.549349
     15          1           0        2.635328    0.106749   -1.091188
 ---------------------------------------------------------------------
                    Distance matrix (angstroms):
                    1          2          3          4          5
     1  O    0.000000
     2  C    1.415762   0.000000
     3  C    2.437585   1.523239   0.000000
     4  C    2.347730   1.515833   2.514614   0.000000
     5  C    1.403320   2.372213   2.969576   3.646638   0.000000
     6  H    2.047502   1.099413   2.149215   2.147365   2.574780
     7  H    2.673079   2.151359   1.090924   2.778706   3.319601
     8  H    2.768224   2.180035   1.089050   3.471537   2.750713
     9  H    3.368488   2.156064   1.089779   2.735081   3.963186
    10  H    3.306921   2.156212   2.771723   1.089372   4.491545
    11  H    2.571715   2.151932   3.459886   1.088421   3.855171
    12  H    2.616503   2.145419   2.750684   1.090390   3.978011
    13  H    2.079613   2.766831   2.766489   4.138865   1.093561
    14  H    2.068953   2.591348   3.278446   3.933100   1.096135
    15  H    2.014973   3.274705   3.973133   4.340039   1.087564
                    6          7          8          9         10
     6  H    0.000000
     7  H    3.053059   0.000000
     8  H    2.480972   1.770844   0.000000
     9  H    2.509180   1.770442   1.759718   0.000000
    10  H    2.488933   3.154844   3.758456   2.543502   0.000000
    11  H    2.484720   3.762300   4.306035   3.742191   1.772400
    12  H    3.051846   2.567235   3.768037   3.060795   1.770737
    13  H    3.091292   2.982953   2.262803   3.792258   4.894102
    14  H    2.305938   3.915579   2.933906   4.098724   4.625835
    15  H    3.505732   4.164804   3.785525   4.995784   5.288774
                   11         12         13         14         15
    11  H    0.000000
    12  H    1.767565   0.000000
    13  H    4.577725   4.333705   0.000000
    14  H    4.055142   4.514040   1.778631   0.000000
    15  H    4.360379   4.560650   1.771220   1.776397   0.000000
 Stoichiometry    C4H10O
 Framework group  C1[X(C4H10O)]
 Deg. of freedom    39
 Full point group                 C1      NOp   1
 RotChk:  IX=0 Diff= 7.17D-16
 Largest Abelian subgroup         C1      NOp   1
 Largest concise Abelian subgroup C1      NOp   1
                         Standard orientation:                         
 ---------------------------------------------------------------------
 Center     Atomic      Atomic             Coordinates (Angstroms)
 Number     Number       Type             X           Y           Z
 ---------------------------------------------------------------------
      1          8           0        0.679222   -0.632678   -0.309167
      2          6           0       -0.421794   -0.009703    0.326483
      3          6           0       -0.582272    1.442886   -0.103041
      4          6           0       -1.642568   -0.835979   -0.026685
      5          6           0        1.933161   -0.126345    0.065757
      6          1           0       -0.259388   -0.045659    1.413240
      7          1           0       -0.677147    1.496254   -1.188520
      8          1           0        0.264216    2.055899    0.203070
      9          1           0       -1.479773    1.868847    0.344918
     10          1           0       -2.528625   -0.444845    0.471964
     11          1           0       -1.497658   -1.872588    0.271813
     12          1           0       -1.807469   -0.807211   -1.104150
     13          1           0        2.114173    0.872196   -0.341707
     14          1           0        2.031920   -0.082763    1.156564
     15          1           0        2.686813   -0.803853   -0.328943
 ---------------------------------------------------------------------
 Rotational constants (GHZ):           7.7292390           3.8505643           2.8503471
 Leave Link  202 at Tue Mar 12 01:35:12 2019, MaxMem=   671088640 cpu:               0.1 elap:               0.0
 (Enter /shared/centos7/gaussian/g16/l601.exe)
 Copying SCF densities to generalized density rwf, IOpCl= 0 IROHF=0.

 **********************************************************************

            Population analysis using the SCF density.

 **********************************************************************

 Orbital symmetries:
       Occupied  (A) (A) (A) (A) (A) (A) (A) (A) (A) (A) (A) (A)
                 (A) (A) (A) (A) (A) (A) (A) (A) (A)
       Virtual   (A) (A) (A) (A) (A) (A) (A) (A) (A) (A) (A) (A)
                 (A) (A) (A) (A) (A) (A) (A) (A) (A) (A) (A) (A)
                 (A) (A) (A) (A) (A) (A) (A) (A) (A) (A) (A) (A)
                 (A) (A) (A) (A) (A) (A) (A) (A) (A) (A) (A) (A)
                 (A) (A) (A) (A) (A) (A) (A) (A) (A) (A) (A) (A)
                 (A) (A) (A) (A) (A) (A) (A) (A) (A) (A) (A) (A)
                 (A) (A) (A) (A) (A) (A) (A) (A) (A) (A) (A) (A)
                 (A) (A) (A) (A) (A) (A) (A) (A) (A) (A) (A) (A)
                 (A) (A) (A) (A) (A) (A) (A) (A) (A) (A) (A) (A)
                 (A) (A) (A) (A) (A) (A) (A) (A) (A) (A) (A) (A)
                 (A) (A) (A) (A) (A) (A) (A) (A) (A) (A) (A) (A)
                 (A) (A) (A) (A) (A) (A) (A) (A) (A) (A) (A) (A)
                 (A) (A) (A) (A) (A) (A) (A) (A) (A) (A) (A) (A)
                 (A) (A) (A) (A) (A) (A) (A) (A) (A) (A) (A) (A)
                 (A) (A) (A) (A) (A) (A) (A) (A) (A) (A) (A) (A)
                 (A) (A) (A) (A) (A) (A) (A) (A) (A) (A) (A) (A)
                 (A) (A) (A) (A) (A) (A) (A) (A) (A) (A) (A) (A)
                 (A) (A) (A) (A) (A) (A) (A) (A) (A) (A) (A) (A)
                 (A) (A) (A) (A) (A) (A) (A) (A) (A) (A) (A) (A)
                 (A) (A) (A) (A) (A) (A) (A) (A) (A) (A) (A)
 The electronic state is 1-A.
 Alpha  occ. eigenvalues --  -19.61883 -10.58475 -10.57201 -10.52259 -10.51896
 Alpha  occ. eigenvalues --   -1.15676  -0.88285  -0.78895  -0.76366  -0.66216
 Alpha  occ. eigenvalues --   -0.57209  -0.53942  -0.53432  -0.49720  -0.46116
 Alpha  occ. eigenvalues --   -0.45467  -0.44152  -0.41441  -0.40884  -0.37593
 Alpha  occ. eigenvalues --   -0.32738
 Alpha virt. eigenvalues --    0.01674   0.03002   0.03482   0.03958   0.05590
 Alpha virt. eigenvalues --    0.06606   0.06978   0.07604   0.07802   0.09522
 Alpha virt. eigenvalues --    0.10167   0.11183   0.12180   0.13180   0.13691
 Alpha virt. eigenvalues --    0.15494   0.18060   0.19590   0.21180   0.21799
 Alpha virt. eigenvalues --    0.22749   0.24522   0.25189   0.25611   0.26141
 Alpha virt. eigenvalues --    0.27208   0.27492   0.28555   0.29742   0.30456
 Alpha virt. eigenvalues --    0.31497   0.34304   0.36528   0.38600   0.40326
 Alpha virt. eigenvalues --    0.42700   0.44726   0.45124   0.49521   0.50393
 Alpha virt. eigenvalues --    0.51028   0.53028   0.53966   0.55598   0.56471
 Alpha virt. eigenvalues --    0.56655   0.57808   0.58919   0.59428   0.60700
 Alpha virt. eigenvalues --    0.62106   0.62339   0.63762   0.65733   0.67908
 Alpha virt. eigenvalues --    0.70259   0.70730   0.71808   0.74088   0.77103
 Alpha virt. eigenvalues --    0.80327   0.83183   0.86115   0.88978   0.89527
 Alpha virt. eigenvalues --    0.91552   0.95856   0.97285   0.98245   1.00251
 Alpha virt. eigenvalues --    1.03924   1.05488   1.07284   1.08070   1.10296
 Alpha virt. eigenvalues --    1.12263   1.13262   1.13964   1.17020   1.17337
 Alpha virt. eigenvalues --    1.19513   1.20949   1.22055   1.22936   1.24828
 Alpha virt. eigenvalues --    1.26193   1.29901   1.30118   1.31119   1.32787
 Alpha virt. eigenvalues --    1.34590   1.35538   1.37579   1.38870   1.39767
 Alpha virt. eigenvalues --    1.40990   1.42285   1.44592   1.46577   1.48094
 Alpha virt. eigenvalues --    1.49166   1.50857   1.52242   1.54200   1.56807
 Alpha virt. eigenvalues --    1.58776   1.61194   1.61963   1.62063   1.65840
 Alpha virt. eigenvalues --    1.68457   1.69547   1.75909   1.86400   2.05516
 Alpha virt. eigenvalues --    2.11585   2.11949   2.25237   2.37485   2.39955
 Alpha virt. eigenvalues --    2.41325   2.47891   2.54509   2.55478   2.59990
 Alpha virt. eigenvalues --    2.62467   2.66038   2.70918   2.73035   2.77716
 Alpha virt. eigenvalues --    2.82581   2.88755   2.90938   2.96094   2.97499
 Alpha virt. eigenvalues --    2.99081   3.00503   3.03311   3.04183   3.08558
 Alpha virt. eigenvalues --    3.10467   3.12979   3.13824   3.14914   3.17390
 Alpha virt. eigenvalues --    3.19659   3.21583   3.23712   3.26865   3.29918
 Alpha virt. eigenvalues --    3.31939   3.34524   3.36983   3.38021   3.38870
 Alpha virt. eigenvalues --    3.42364   3.43862   3.46723   3.49788   3.52628
 Alpha virt. eigenvalues --    3.54031   3.56855   3.58315   3.61676   3.61869
 Alpha virt. eigenvalues --    3.64903   3.70964   3.72525   3.75796   3.78031
 Alpha virt. eigenvalues --    3.81277   3.81894   3.85063   3.87704   3.90012
 Alpha virt. eigenvalues --    3.93304   3.95439   3.99088   4.00967   4.02055
 Alpha virt. eigenvalues --    4.03635   4.07814   4.08118   4.12912   4.17611
 Alpha virt. eigenvalues --    4.18806   4.19754   4.20851   4.21747   4.23373
 Alpha virt. eigenvalues --    4.25055   4.26525   4.29133   4.30331   4.32838
 Alpha virt. eigenvalues --    4.35564   4.37055   4.39593   4.44858   4.49945
 Alpha virt. eigenvalues --    4.50731   4.51514   4.55451   4.57055   4.60063
 Alpha virt. eigenvalues --    4.61395   4.65458   4.72878   4.82900   4.94128
 Alpha virt. eigenvalues --    5.19295   5.27587   5.29846   5.33804   5.41939
 Alpha virt. eigenvalues --    5.48186   5.53709   5.56231   5.59051   5.61024
 Alpha virt. eigenvalues --    5.61589   5.64333   5.66915   5.69679   5.84082
 Alpha virt. eigenvalues --    5.91619   6.23269   6.50646   6.73824   7.21133
 Alpha virt. eigenvalues --    7.23080   7.36744   7.73306   7.78550  24.33086
 Alpha virt. eigenvalues --   24.41834  24.45374  24.51791  50.20677
          Condensed to atoms (all electrons):
               1          2          3          4          5          6
     1  O    8.244152   0.230959  -0.128521  -0.128081   0.110750  -0.043086
     2  C    0.230959   5.313848   0.172619   0.320978  -0.107428   0.467035
     3  C   -0.128521   0.172619   5.283852  -0.123986   0.015732  -0.066271
     4  C   -0.128081   0.320978  -0.123986   5.180309  -0.020034  -0.023915
     5  C    0.110750  -0.107428   0.015732  -0.020034   4.986517  -0.010220
     6  H   -0.043086   0.467035  -0.066271  -0.023915  -0.010220   0.520593
     7  H   -0.003730  -0.033541   0.430071  -0.014507  -0.004043   0.005835
     8  H   -0.008196  -0.016723   0.392013   0.008585   0.005227  -0.007408
     9  H    0.009667  -0.043908   0.420053  -0.001366  -0.000987  -0.002259
    10  H    0.013619  -0.047485  -0.009851   0.430006   0.001573  -0.006482
    11  H   -0.005103  -0.028355   0.020010   0.397388  -0.001191  -0.006368
    12  H   -0.010586  -0.006456  -0.016204   0.398758  -0.000692   0.005990
    13  H   -0.051551  -0.003631   0.000454  -0.007819   0.447669  -0.001665
    14  H   -0.044495   0.000625  -0.001641   0.002219   0.421446   0.006211
    15  H   -0.059209   0.010956   0.000172   0.002649   0.429879   0.000202
               7          8          9         10         11         12
     1  O   -0.003730  -0.008196   0.009667   0.013619  -0.005103  -0.010586
     2  C   -0.033541  -0.016723  -0.043908  -0.047485  -0.028355  -0.006456
     3  C    0.430071   0.392013   0.420053  -0.009851   0.020010  -0.016204
     4  C   -0.014507   0.008585  -0.001366   0.430006   0.397388   0.398758
     5  C   -0.004043   0.005227  -0.000987   0.001573  -0.001191  -0.000692
     6  H    0.005835  -0.007408  -0.002259  -0.006482  -0.006368   0.005990
     7  H    0.504128  -0.028737  -0.028491   0.000256  -0.000185   0.002091
     8  H   -0.028737   0.545840  -0.024589   0.000203  -0.000285  -0.000005
     9  H   -0.028491  -0.024589   0.528917   0.000462   0.000124  -0.000533
    10  H    0.000256   0.000203   0.000462   0.532526  -0.022559  -0.032237
    11  H   -0.000185  -0.000285   0.000124  -0.022559   0.521625  -0.025440
    12  H    0.002091  -0.000005  -0.000533  -0.032237  -0.025440   0.526910
    13  H   -0.000079  -0.003334  -0.000154   0.000019   0.000015  -0.000027
    14  H    0.000269  -0.001214   0.000039  -0.000006   0.000019  -0.000001
    15  H   -0.000147   0.000396   0.000045   0.000015  -0.000038   0.000025
              13         14         15
     1  O   -0.051551  -0.044495  -0.059209
     2  C   -0.003631   0.000625   0.010956
     3  C    0.000454  -0.001641   0.000172
     4  C   -0.007819   0.002219   0.002649
     5  C    0.447669   0.421446   0.429879
     6  H   -0.001665   0.006211   0.000202
     7  H   -0.000079   0.000269  -0.000147
     8  H   -0.003334  -0.001214   0.000396
     9  H   -0.000154   0.000039   0.000045
    10  H    0.000019  -0.000006   0.000015
    11  H    0.000015   0.000019  -0.000038
    12  H   -0.000027  -0.000001   0.000025
    13  H    0.575427  -0.052817  -0.028049
    14  H   -0.052817   0.575331  -0.021824
    15  H   -0.028049  -0.021824   0.528861
 Mulliken charges:
               1
     1  O   -0.126588
     2  C   -0.229492
     3  C   -0.388501
     4  C   -0.421186
     5  C   -0.274200
     6  H    0.161809
     7  H    0.170809
     8  H    0.138228
     9  H    0.142981
    10  H    0.139941
    11  H    0.150344
    12  H    0.158409
    13  H    0.125543
    14  H    0.115837
    15  H    0.136065
 Sum of Mulliken charges =  -0.00000
 Mulliken charges with hydrogens summed into heavy atoms:
               1
     1  O   -0.126588
     2  C   -0.067682
     3  C    0.063517
     4  C    0.027507
     5  C    0.103246
 Electronic spatial extent (au):  <R**2>=            501.4213
 Charge=              0.0000 electrons
 Dipole moment (field-independent basis, Debye):
    X=              0.0422    Y=              0.9835    Z=              0.8439  Tot=              1.2966
 Quadrupole moment (field-independent basis, Debye-Ang):
   XX=            -30.8133   YY=            -34.5540   ZZ=            -33.7830
   XY=              0.3859   XZ=              0.2446   YZ=             -0.6264
 Traceless Quadrupole moment (field-independent basis, Debye-Ang):
   XX=              2.2368   YY=             -1.5038   ZZ=             -0.7329
   XY=              0.3859   XZ=              0.2446   YZ=             -0.6264
 Octapole moment (field-independent basis, Debye-Ang**2):
  XXX=              8.8266  YYY=             -2.7354  ZZZ=             -1.0567  XYY=              1.0522
  XXY=             -1.3278  XXZ=             -0.1281  XZZ=              0.4200  YZZ=             -0.5081
  YYZ=              0.2676  XYZ=             -0.4108
 Hexadecapole moment (field-independent basis, Debye-Ang**3):
 XXXX=           -394.8646 YYYY=           -212.1417 ZZZZ=            -71.9238 XXXY=            -10.1487
 XXXZ=             -6.9457 YYYX=              0.7968 YYYZ=              0.2006 ZZZX=              2.1026
 ZZZY=             -0.5997 XXYY=           -101.0858 XXZZ=            -79.5307 YYZZ=            -48.3557
 XXYZ=              2.5317 YYXZ=             -1.9116 ZZXY=             -0.8652
 N-N= 1.974094098179D+02 E-N=-9.390859873238D+02  KE= 2.326910495277D+02
 No NMR shielding tensors so no spin-rotation constants.
 Leave Link  601 at Tue Mar 12 01:35:13 2019, MaxMem=   671088640 cpu:               3.8 elap:               0.2
 (Enter /shared/centos7/gaussian/g16/l9999.exe)
 1\1\GINC-C0257\Scan\RM062X\6-311+G(2df,2p)\C4H10O1\UNDERKOFFLER.C\12-M
 ar-2019\0\\#p m062x/6-311+g(2df,2p) Opt=(CalcFC,ModRedun)\\Gaussian In
 put Prepared from Scan Object\\0,1\O,0.6522363231,-0.0861085085,-0.790
 7404975\C,-0.3629939583,-0.1990487594,0.1895325298\C,-0.6778897117,1.1
 405736309,0.8426105175\C,-1.5745049228,-0.776965608,-0.5147419667\C,1.
 9188817312,0.2434181457,-0.284452403\H,-0.0208518501,-0.9022437154,0.9
 622964997\H,-0.9543711712,1.8663423471,0.0764953832\H,0.1699584351,1.5
 317891944,1.4030875267\H,-1.5122686201,1.0325374329,1.5352568076\H,-2.
 3871590773,-0.9420169772,0.1917160622\H,-1.3212014942,-1.723117269,-0.
 9893930884\H,-1.9171380598,-0.0855292071,-1.2851112244\H,1.970599233,1
 .2814241946,0.0557614945\H,2.1943477381,-0.4126351662,0.5493491888\H,2
 .6353284049,0.1067492655,-1.0911878301\\Version=EM64L-G16RevA.03\State
 =1-A\HF=-233.6252115,-233.6250142,-233.624443,-233.6236631,-233.622930
 7,-233.6224712,-233.6224088,-233.6227458,-233.6233617,-233.6240552,-23
 3.6246301,-233.6250034,-233.625204,-233.6250771,-233.6245462,-233.6237
 619,-233.6229877,-233.6224846,-233.6224078,-233.6227602,-233.6233977,-
 233.6240981,-233.6246641,-233.6250268,-233.625209,-233.6250526,-233.62
 4506,-233.6237198,-233.6229554,-233.6224702,-233.6224166,-233.6227929,
 -233.6234465,-233.6241492,-233.6247058,-233.6250559,-233.6252115\RMSD=
 5.665e-09,6.178e-09,3.672e-09,6.796e-09,8.618e-09,2.485e-09,4.380e-09,
 8.957e-09,6.985e-09,5.026e-09,9.312e-09,8.998e-09,5.280e-09,3.843e-09,
 4.770e-09,3.171e-09,4.296e-09,5.488e-09,4.054e-09,3.567e-09,7.953e-09,
 1.743e-09,7.757e-09,7.543e-09,5.193e-09,8.571e-09,5.075e-09,8.658e-09,
 3.284e-09,4.718e-09,4.124e-09,4.454e-09,7.788e-09,9.577e-09,7.413e-09,
 7.799e-09,5.250e-09\PG=C01 [X(C4H10O1)]\\@


 OLD AGE AND TREACHERY WILL ALWAYS PREVAIL OVER YOUTH AND SKILL.
 Job cpu time:       0 days 20 hours  4 minutes 46.9 seconds.
 Elapsed time:       0 days  1 hours  0 minutes 58.0 seconds.
 File lengths (MBytes):  RWF=   1328 Int=      0 D2E=      0 Chk=     32 Scr=     32
 Normal termination of Gaussian 16 at Tue Mar 12 01:35:13 2019.
