 Entering Gaussian System, Link 0=g16
 Input=RMGHERXMTMUMMV-UHFFFAOYSA-N_12by30.0_tor12_a1.com
 Output=RMGHERXMTMUMMV-UHFFFAOYSA-N_12by30.0_tor12_a1.log
 Initial command:
 /shared/centos7/gaussian/g16/l1.exe "/scratch/underkoffler.c/gaussian_scratch/Gau-18196.inp" -scrdir="/scratch/underkoffler.c/gaussian_scratch/"
 Entering Link 1 = /shared/centos7/gaussian/g16/l1.exe PID=     18197.
  
 Copyright (c) 1988,1990,1992,1993,1995,1998,2003,2009,2016,
            Gaussian, Inc.  All Rights Reserved.
  
 This is part of the Gaussian(R) 16 program.  It is based on
 the Gaussian(R) 09 system (copyright 2009, Gaussian, Inc.),
 the Gaussian(R) 03 system (copyright 2003, Gaussian, Inc.),
 the Gaussian(R) 98 system (copyright 1998, Gaussian, Inc.),
 the Gaussian(R) 94 system (copyright 1995, Gaussian, Inc.),
 the Gaussian 92(TM) system (copyright 1992, Gaussian, Inc.),
 the Gaussian 90(TM) system (copyright 1990, Gaussian, Inc.),
 the Gaussian 88(TM) system (copyright 1988, Gaussian, Inc.),
 the Gaussian 86(TM) system (copyright 1986, Carnegie Mellon
 University), and the Gaussian 82(TM) system (copyright 1983,
 Carnegie Mellon University). Gaussian is a federally registered
 trademark of Gaussian, Inc.
  
 This software contains proprietary and confidential information,
 including trade secrets, belonging to Gaussian, Inc.
  
 This software is provided under written license and may be
 used, copied, transmitted, or stored only in accord with that
 written license.
  
 The following legend is applicable only to US Government
 contracts under FAR:
  
                    RESTRICTED RIGHTS LEGEND
  
 Use, reproduction and disclosure by the US Government is
 subject to restrictions as set forth in subparagraphs (a)
 and (c) of the Commercial Computer Software - Restricted
 Rights clause in FAR 52.227-19.
  
 Gaussian, Inc.
 340 Quinnipiac St., Bldg. 40, Wallingford CT 06492
  
  
 ---------------------------------------------------------------
 Warning -- This program may not be used in any manner that
 competes with the business of Gaussian, Inc. or will provide
 assistance to any competitor of Gaussian, Inc.  The licensee
 of this program is prohibited from giving any competitor of
 Gaussian, Inc. access to this program.  By using this program,
 the user acknowledges that Gaussian, Inc. is engaged in the
 business of creating and licensing software in the field of
 computational chemistry and represents and warrants to the
 licensee that it is not a competitor of Gaussian, Inc. and that
 it will not use this program in any manner prohibited above.
 ---------------------------------------------------------------
  

 Cite this work as:
 Gaussian 16, Revision A.03,
 M. J. Frisch, G. W. Trucks, H. B. Schlegel, G. E. Scuseria, 
 M. A. Robb, J. R. Cheeseman, G. Scalmani, V. Barone, 
 G. A. Petersson, H. Nakatsuji, X. Li, M. Caricato, A. V. Marenich, 
 J. Bloino, B. G. Janesko, R. Gomperts, B. Mennucci, H. P. Hratchian, 
 J. V. Ortiz, A. F. Izmaylov, J. L. Sonnenberg, D. Williams-Young, 
 F. Ding, F. Lipparini, F. Egidi, J. Goings, B. Peng, A. Petrone, 
 T. Henderson, D. Ranasinghe, V. G. Zakrzewski, J. Gao, N. Rega, 
 G. Zheng, W. Liang, M. Hada, M. Ehara, K. Toyota, R. Fukuda, 
 J. Hasegawa, M. Ishida, T. Nakajima, Y. Honda, O. Kitao, H. Nakai, 
 T. Vreven, K. Throssell, J. A. Montgomery, Jr., J. E. Peralta, 
 F. Ogliaro, M. J. Bearpark, J. J. Heyd, E. N. Brothers, K. N. Kudin, 
 V. N. Staroverov, T. A. Keith, R. Kobayashi, J. Normand, 
 K. Raghavachari, A. P. Rendell, J. C. Burant, S. S. Iyengar, 
 J. Tomasi, M. Cossi, J. M. Millam, M. Klene, C. Adamo, R. Cammi, 
 J. W. Ochterski, R. L. Martin, K. Morokuma, O. Farkas, 
 J. B. Foresman, and D. J. Fox, Gaussian, Inc., Wallingford CT, 2016.
 
 ******************************************
 Gaussian 16:  EM64L-G16RevA.03 25-Dec-2016
                29-Mar-2019 
 ******************************************
 %nprocshared=20
 Will use up to   20 processors via shared memory.
 %mem=5GB
 ----------------------------------------------
 #p m062x/6-311+g(2df,2p) Opt=(CalcFC,ModRedun)
 ----------------------------------------------
 1/10=4,18=120,19=15,26=3,38=1/1,3;
 2/9=110,12=2,17=6,18=5,40=1/2;
 3/5=4,6=6,7=214,11=2,25=1,30=1,71=2,74=-55,140=1/1,2,3;
 4//1;
 5/5=2,38=5/2;
 8/6=4,10=90,11=11/1;
 11/6=1,8=1,9=11,15=111,16=1/1,2,10;
 10/6=1,13=1/2;
 6/7=2,8=2,9=2,10=2,28=1/1;
 7/10=1,18=20,25=1/1,2,3,16;
 1/10=4,18=20,19=15,26=3/3(2);
 2/9=110/2;
 99//99;
 2/9=110/2;
 3/5=4,6=6,7=214,11=2,25=1,30=1,71=1,74=-55/1,2,3;
 4/5=5,16=3,69=1/1;
 5/5=2,38=5/2;
 7//1,2,3,16;
 1/18=20,19=15,26=3/3(-5);
 2/9=110/2;
 6/7=2,8=2,9=2,10=2,19=2,28=1/1;
 99/9=1/99;
 Leave Link    1 at Fri Mar 29 14:42:13 2019, MaxMem=   671088640 cpu:              18.4 elap:               1.0
 (Enter /shared/centos7/gaussian/g16/l101.exe)
 ----------------------------------------
 Gaussian Input Prepared from Scan Object
 ----------------------------------------
 Symbolic Z-matrix:
 Charge =  0 Multiplicity = 1
 O                     0.67918  -0.63289  -0.30886 
 C                    -0.42184  -0.00967   0.32654 
 C                    -0.58211   1.44291  -0.10309 
 C                    -1.64264  -0.83584  -0.02679 
 C                     1.93316  -0.12636   0.06564 
 H                    -0.25962  -0.04557   1.41333 
 H                    -0.67632   1.49627  -1.18863 
 H                     0.26412   2.056     0.20357 
 H                    -1.47992   1.8688    0.34431 
 H                    -2.52872  -0.44463   0.47175 
 H                    -1.49785  -1.87246   0.27174 
 H                    -1.80741  -0.80707  -1.10427 
 H                     2.11414   0.87197  -0.34236 
 H                     2.03208  -0.08221   1.1564 
 H                     2.68674  -0.80409  -0.32881 
 
 The following ModRedundant input section has been read:
 B       2       3 B                                                           
 B       1       2 B                                                           
 B       5      15 B                                                           
 B       4      12 B                                                           
 B       5      14 B                                                           
 B       4      10 B                                                           
 B       4      11 B                                                           
 B       2       6 B                                                           
 B       1       5 B                                                           
 B       3       8 B                                                           
 B       3       9 B                                                           
 B       3       7 B                                                           
 B       5      13 B                                                           
 B       2       4 B                                                           
 D       6       2       3       9 S  12 30.000                                
 
 ITRead=  0  0  0  0  0  0  0  0  0  0  0  0  0  0  0
 MicOpt= -1 -1 -1 -1 -1 -1 -1 -1 -1 -1 -1 -1 -1 -1 -1
 NAtoms=     15 NQM=       15 NQMF=       0 NMMI=      0 NMMIF=      0
                NMic=       0 NMicF=      0.
                    Isotopes and Nuclear Properties:
 (Nuclear quadrupole moments (NQMom) in fm**2, nuclear magnetic moments (NMagM)
  in nuclear magnetons)

  Atom         1           2           3           4           5           6           7           8           9          10
 IAtWgt=          16          12          12          12          12           1           1           1           1           1
 AtmWgt=  15.9949146  12.0000000  12.0000000  12.0000000  12.0000000   1.0078250   1.0078250   1.0078250   1.0078250   1.0078250
 NucSpn=           0           0           0           0           0           1           1           1           1           1
 AtZEff=  -0.0000000  -0.0000000  -0.0000000  -0.0000000  -0.0000000  -0.0000000  -0.0000000  -0.0000000  -0.0000000  -0.0000000
 NQMom=    0.0000000   0.0000000   0.0000000   0.0000000   0.0000000   0.0000000   0.0000000   0.0000000   0.0000000   0.0000000
 NMagM=    0.0000000   0.0000000   0.0000000   0.0000000   0.0000000   2.7928460   2.7928460   2.7928460   2.7928460   2.7928460
 AtZNuc=   8.0000000   6.0000000   6.0000000   6.0000000   6.0000000   1.0000000   1.0000000   1.0000000   1.0000000   1.0000000

  Atom        11          12          13          14          15
 IAtWgt=           1           1           1           1           1
 AtmWgt=   1.0078250   1.0078250   1.0078250   1.0078250   1.0078250
 NucSpn=           1           1           1           1           1
 AtZEff=  -0.0000000  -0.0000000  -0.0000000  -0.0000000  -0.0000000
 NQMom=    0.0000000   0.0000000   0.0000000   0.0000000   0.0000000
 NMagM=    2.7928460   2.7928460   2.7928460   2.7928460   2.7928460
 AtZNuc=   1.0000000   1.0000000   1.0000000   1.0000000   1.0000000
 Leave Link  101 at Fri Mar 29 14:42:13 2019, MaxMem=   671088640 cpu:               5.8 elap:               0.3
 (Enter /shared/centos7/gaussian/g16/l103.exe)

 GradGradGradGradGradGradGradGradGradGradGradGradGradGradGradGradGradGrad
 Berny optimization.
 Initialization pass.
                           ----------------------------
                           !    Initial Parameters    !
                           ! (Angstroms and Degrees)  !
 --------------------------                            --------------------------
 ! Name  Definition              Value          Derivative Info.                !
 --------------------------------------------------------------------------------
 ! R1    R(1,2)                  1.4158         calculate D2E/DX2 analytically  !
 ! R2    R(1,5)                  1.4033         calculate D2E/DX2 analytically  !
 ! R3    R(2,3)                  1.5232         calculate D2E/DX2 analytically  !
 ! R4    R(2,4)                  1.5158         calculate D2E/DX2 analytically  !
 ! R5    R(2,6)                  1.0994         calculate D2E/DX2 analytically  !
 ! R6    R(3,7)                  1.0909         calculate D2E/DX2 analytically  !
 ! R7    R(3,8)                  1.089          calculate D2E/DX2 analytically  !
 ! R8    R(3,9)                  1.0898         calculate D2E/DX2 analytically  !
 ! R9    R(4,10)                 1.0894         calculate D2E/DX2 analytically  !
 ! R10   R(4,11)                 1.0884         calculate D2E/DX2 analytically  !
 ! R11   R(4,12)                 1.0904         calculate D2E/DX2 analytically  !
 ! R12   R(5,13)                 1.0936         calculate D2E/DX2 analytically  !
 ! R13   R(5,14)                 1.0961         calculate D2E/DX2 analytically  !
 ! R14   R(5,15)                 1.0876         calculate D2E/DX2 analytically  !
 ! A1    A(2,1,5)              114.5994         calculate D2E/DX2 analytically  !
 ! A2    A(1,2,3)              112.0256         calculate D2E/DX2 analytically  !
 ! A3    A(1,2,4)              106.3672         calculate D2E/DX2 analytically  !
 ! A4    A(1,2,6)              108.3324         calculate D2E/DX2 analytically  !
 ! A5    A(3,2,4)              111.6702         calculate D2E/DX2 analytically  !
 ! A6    A(3,2,6)              108.9941         calculate D2E/DX2 analytically  !
 ! A7    A(4,2,6)              109.3567         calculate D2E/DX2 analytically  !
 ! A8    A(2,3,7)              109.6568         calculate D2E/DX2 analytically  !
 ! A9    A(2,3,8)              112.0657         calculate D2E/DX2 analytically  !
 ! A10   A(2,3,9)              110.0941         calculate D2E/DX2 analytically  !
 ! A11   A(7,3,8)              108.6488         calculate D2E/DX2 analytically  !
 ! A12   A(7,3,9)              108.5573         calculate D2E/DX2 analytically  !
 ! A13   A(8,3,9)              107.7313         calculate D2E/DX2 analytically  !
 ! A14   A(2,4,10)             110.6511         calculate D2E/DX2 analytically  !
 ! A15   A(2,4,11)             110.3663         calculate D2E/DX2 analytically  !
 ! A16   A(2,4,12)             109.7335         calculate D2E/DX2 analytically  !
 ! A17   A(10,4,11)            108.948          calculate D2E/DX2 analytically  !
 ! A18   A(10,4,12)            108.6532         calculate D2E/DX2 analytically  !
 ! A19   A(11,4,12)            108.4369         calculate D2E/DX2 analytically  !
 ! A20   A(1,5,13)             112.1999         calculate D2E/DX2 analytically  !
 ! A21   A(1,5,14)             111.1458         calculate D2E/DX2 analytically  !
 ! A22   A(1,5,15)             107.3052         calculate D2E/DX2 analytically  !
 ! A23   A(13,5,14)            108.6358         calculate D2E/DX2 analytically  !
 ! A24   A(13,5,15)            108.5968         calculate D2E/DX2 analytically  !
 ! A25   A(14,5,15)            108.8734         calculate D2E/DX2 analytically  !
 ! D1    D(5,1,2,3)             66.8754         calculate D2E/DX2 analytically  !
 ! D2    D(5,1,2,4)           -170.8503         calculate D2E/DX2 analytically  !
 ! D3    D(5,1,2,6)            -53.3837         calculate D2E/DX2 analytically  !
 ! D4    D(2,1,5,13)           -71.7954         calculate D2E/DX2 analytically  !
 ! D5    D(2,1,5,14)            50.0681         calculate D2E/DX2 analytically  !
 ! D6    D(2,1,5,15)           169.001          calculate D2E/DX2 analytically  !
 ! D7    D(1,2,3,7)             56.326          calculate D2E/DX2 analytically  !
 ! D8    D(1,2,3,8)            -64.4168         calculate D2E/DX2 analytically  !
 ! D9    D(1,2,3,9)            175.7012         calculate D2E/DX2 analytically  !
 ! D10   D(4,2,3,7)            -62.8728         calculate D2E/DX2 analytically  !
 ! D11   D(4,2,3,8)            176.3844         calculate D2E/DX2 analytically  !
 ! D12   D(4,2,3,9)             56.5024         calculate D2E/DX2 analytically  !
 ! D13   D(6,2,3,7)            176.199          calculate D2E/DX2 analytically  !
 ! D14   D(6,2,3,8)             55.4562         calculate D2E/DX2 analytically  !
 ! D15   D(6,2,3,9)            -64.4258         Scan                            !
 ! D16   D(1,2,4,10)           177.0752         calculate D2E/DX2 analytically  !
 ! D17   D(1,2,4,11)            56.4075         calculate D2E/DX2 analytically  !
 ! D18   D(1,2,4,12)           -63.0356         calculate D2E/DX2 analytically  !
 ! D19   D(3,2,4,10)           -60.4258         calculate D2E/DX2 analytically  !
 ! D20   D(3,2,4,11)           178.9065         calculate D2E/DX2 analytically  !
 ! D21   D(3,2,4,12)            59.4633         calculate D2E/DX2 analytically  !
 ! D22   D(6,2,4,10)            60.2911         calculate D2E/DX2 analytically  !
 ! D23   D(6,2,4,11)           -60.3766         calculate D2E/DX2 analytically  !
 ! D24   D(6,2,4,12)          -179.8198         calculate D2E/DX2 analytically  !
 --------------------------------------------------------------------------------
 Trust Radius=3.00D-01 FncErr=1.00D-07 GrdErr=1.00D-06 EigMax=2.50D+02 EigMin=1.00D-04
 Number of optimizations in scan=  13
 Number of steps in this run=     73 maximum allowed number of steps=    100.
 GradGradGradGradGradGradGradGradGradGradGradGradGradGradGradGradGradGrad

 Leave Link  103 at Fri Mar 29 14:42:13 2019, MaxMem=   671088640 cpu:               0.2 elap:               0.0
 (Enter /shared/centos7/gaussian/g16/l202.exe)
                          Input orientation:                          
 ---------------------------------------------------------------------
 Center     Atomic      Atomic             Coordinates (Angstroms)
 Number     Number       Type             X           Y           Z
 ---------------------------------------------------------------------
      1          8           0        0.679179   -0.632886   -0.308860
      2          6           0       -0.421839   -0.009670    0.326538
      3          6           0       -0.582110    1.442912   -0.103090
      4          6           0       -1.642641   -0.835840   -0.026786
      5          6           0        1.933156   -0.126363    0.065637
      6          1           0       -0.259620   -0.045568    1.413326
      7          1           0       -0.676325    1.496270   -1.188628
      8          1           0        0.264120    2.056004    0.203569
      9          1           0       -1.479924    1.868799    0.344312
     10          1           0       -2.528723   -0.444627    0.471752
     11          1           0       -1.497852   -1.872458    0.271741
     12          1           0       -1.807405   -0.807071   -1.104272
     13          1           0        2.114137    0.871966   -0.342355
     14          1           0        2.032077   -0.082211    1.156401
     15          1           0        2.686742   -0.804089   -0.328805
 ---------------------------------------------------------------------
                    Distance matrix (angstroms):
                    1          2          3          4          5
     1  O    0.000000
     2  C    1.415757   0.000000
     3  C    2.437648   1.523241   0.000000
     4  C    2.347681   1.515834   2.514610   0.000000
     5  C    1.403307   2.372275   2.969454   3.646673   0.000000
     6  H    2.047489   1.099414   2.149207   2.147370   2.575085
     7  H    2.672955   2.151360   1.090925   2.778918   3.318962
     8  H    2.768571   2.180063   1.089049   3.471536   2.750897
     9  H    3.368500   2.156040   1.089779   2.734824   3.963262
    10  H    3.306877   2.156208   2.771742   1.089371   4.491613
    11  H    2.571596   2.151926   3.459879   1.088420   3.855275
    12  H    2.616510   2.145427   2.750661   1.090390   3.977920
    13  H    2.079617   2.766925   2.766401   4.138788   1.093560
    14  H    2.068952   2.591454   3.278153   3.933374   1.096130
    15  H    2.014949   3.274729   3.973079   4.340021   1.087561
                    6          7          8          9         10
     6  H    0.000000
     7  H    3.053043   0.000000
     8  H    2.480810   1.770862   0.000000
     9  H    2.509329   1.770440   1.759700   0.000000
    10  H    2.488903   3.155206   3.758331   2.543258   0.000000
    11  H    2.484746   3.762435   4.306044   3.742004   1.772399
    12  H    3.051856   2.567458   3.768138   3.060379   1.770738
    13  H    3.091765   2.982048   2.263304   3.792422   4.894113
    14  H    2.306345   3.914869   2.933517   4.098790   4.626119
    15  H    3.505913   4.164273   3.785849   4.995851   5.288779
                   11         12         13         14         15
    11  H    0.000000
    12  H    1.767564   0.000000
    13  H    4.577712   4.333380   0.000000
    14  H    4.055614   4.514165   1.778611   0.000000
    15  H    4.360379   4.560561   1.771220   1.776382   0.000000
 Stoichiometry    C4H10O
 Framework group  C1[X(C4H10O)]
 Deg. of freedom    39
 Full point group                 C1      NOp   1
 Largest Abelian subgroup         C1      NOp   1
 Largest concise Abelian subgroup C1      NOp   1
                         Standard orientation:                         
 ---------------------------------------------------------------------
 Center     Atomic      Atomic             Coordinates (Angstroms)
 Number     Number       Type             X           Y           Z
 ---------------------------------------------------------------------
      1          8           0        0.679189   -0.632878   -0.308859
      2          6           0       -0.421840   -0.009681    0.326539
      3          6           0       -0.582136    1.442899   -0.103089
      4          6           0       -1.642628   -0.835872   -0.026785
      5          6           0        1.933157   -0.126334    0.065638
      6          1           0       -0.259621   -0.045576    1.413327
      7          1           0       -0.676352    1.496255   -1.188627
      8          1           0        0.264083    2.056005    0.203570
      9          1           0       -1.479958    1.868769    0.344313
     10          1           0       -2.528717   -0.444675    0.471753
     11          1           0       -1.497821   -1.872488    0.271743
     12          1           0       -1.807393   -0.807106   -1.104270
     13          1           0        2.114121    0.871999   -0.342354
     14          1           0        2.032077   -0.082180    1.156402
     15          1           0        2.686755   -0.804046   -0.328804
 ---------------------------------------------------------------------
 Rotational constants (GHZ):           7.7293204           3.8506206           2.8503180
 Leave Link  202 at Fri Mar 29 14:42:14 2019, MaxMem=   671088640 cpu:               0.2 elap:               0.0
 (Enter /shared/centos7/gaussian/g16/l301.exe)
 Standard basis: 6-311+G(2df,2p) (5D, 7F)
 Ernie: Thresh=  0.10000D-02 Tol=  0.10000D-05 Strict=F.
 There are   285 symmetry adapted cartesian basis functions of A   symmetry.
 There are   260 symmetry adapted basis functions of A   symmetry.
   260 basis functions,   370 primitive gaussians,   285 cartesian basis functions
    21 alpha electrons       21 beta electrons
       nuclear repulsion energy       197.4095515522 Hartrees.
 IExCor= 4336 DFT=T Ex+Corr=M062X ExCW=0 ScaHFX=  0.540000
 ScaDFX=  1.000000  1.000000  1.000000  1.000000 ScalE2=  1.000000  1.000000
 IRadAn=      5 IRanWt=     -1 IRanGd=            0 ICorTp=0 IEmpDi=  4
 NAtoms=   15 NActive=   15 NUniq=   15 SFac= 1.00D+00 NAtFMM=   60 NAOKFM=F Big=F
 Integral buffers will be    131072 words long.
 Raffenetti 2 integral format.
 Two-electron integral symmetry is turned on.
 Leave Link  301 at Fri Mar 29 14:42:14 2019, MaxMem=   671088640 cpu:               1.2 elap:               0.1
 (Enter /shared/centos7/gaussian/g16/l302.exe)
 NPDir=0 NMtPBC=     1 NCelOv=     1 NCel=       1 NClECP=     1 NCelD=      1
         NCelK=      1 NCelE2=     1 NClLst=     1 CellRange=     0.0.
 One-electron integrals computed using PRISM.
 One-electron integral symmetry used in STVInt
 NBasis=   260 RedAO= T EigKep=  4.54D-05  NBF=   260
 NBsUse=   260 1.00D-06 EigRej= -1.00D+00 NBFU=   260
 Precomputing XC quadrature grid using
 IXCGrd= 4 IRadAn=           5 IRanWt=          -1 IRanGd=           0 AccXCQ= 0.00D+00.
 Generated NRdTot=       0 NPtTot=           0 NUsed=           0 NTot=          32
 NSgBfM=   285   285   285   285   285 MxSgAt=    15 MxSgA2=    15.
 Leave Link  302 at Fri Mar 29 14:42:14 2019, MaxMem=   671088640 cpu:               9.0 elap:               0.5
 (Enter /shared/centos7/gaussian/g16/l303.exe)
 DipDrv:  MaxL=1.
 Leave Link  303 at Fri Mar 29 14:42:14 2019, MaxMem=   671088640 cpu:               0.7 elap:               0.1
 (Enter /shared/centos7/gaussian/g16/l401.exe)
 ExpMin= 4.38D-02 ExpMax= 8.59D+03 ExpMxC= 1.30D+03 IAcc=3 IRadAn=         5 AccDes= 0.00D+00
 Harris functional with IExCor= 1009 and IRadAn=       5 diagonalized for initial guess.
 HarFok:  IExCor= 1009 AccDes= 0.00D+00 IRadAn=         5 IDoV= 1 UseB2=F ITyADJ=14
 ICtDFT=  3500011 ScaDFX=  1.000000  1.000000  1.000000  1.000000
 FoFCou: FMM=F IPFlag=           0 FMFlag=      100000 FMFlg1=           0
         NFxFlg=           0 DoJE=T BraDBF=F KetDBF=T FulRan=T
         wScrn=  0.000000 ICntrl=       500 IOpCl=  0 I1Cent=   200000004 NGrid=           0
         NMat0=    1 NMatS0=      1 NMatT0=    0 NMatD0=    1 NMtDS0=    0 NMtDT0=    0
 Petite list used in FoFCou.
 Harris En= -233.583115224435    
 JPrj=0 DoOrth=F DoCkMO=F.
 Leave Link  401 at Fri Mar 29 14:42:16 2019, MaxMem=   671088640 cpu:              27.5 elap:               1.4
 (Enter /shared/centos7/gaussian/g16/l502.exe)
 Integral symmetry usage will be decided dynamically.
 Closed shell SCF:
 Using DIIS extrapolation, IDIIS=  1040.
 NGot=   671088640 LenX=   670917793 LenY=   670836127
 Requested convergence on RMS density matrix=1.00D-08 within 128 cycles.
 Requested convergence on MAX density matrix=1.00D-06.
 Requested convergence on             energy=1.00D-06.
 No special actions if energy rises.
 Fock matrices will be formed incrementally for  20 cycles.

 Cycle   1  Pass 1  IDiag  1:
 FoFJK:  IHMeth= 1 ICntrl=       0 DoSepK=F KAlg= 0 I1Cent=           0 FoldK=F
 IRaf= 980000000 NMat=       1 IRICut=       1 DoRegI=T DoRafI=F ISym2E= 0 IDoP0=0 IntGTp=1.
 FoFCou: FMM=F IPFlag=           0 FMFlag=      100000 FMFlg1=           0
         NFxFlg=           0 DoJE=F BraDBF=F KetDBF=F FulRan=T
         wScrn=  0.000000 ICntrl=         0 IOpCl=  0 I1Cent=           0 NGrid=           0
         NMat0=    1 NMatS0=      1 NMatT0=    0 NMatD0=    1 NMtDS0=    0 NMtDT0=    0
 Symmetry not used in FoFCou.
 E= -233.419632294197    
 DIIS: error= 2.45D-02 at cycle   1 NSaved=   1.
 NSaved= 1 IEnMin= 1 EnMin= -233.419632294197     IErMin= 1 ErrMin= 2.45D-02
 ErrMax= 2.45D-02  0.00D+00 EMaxC= 1.00D-01 BMatC= 2.41D-01 BMatP= 2.41D-01
 IDIUse=3 WtCom= 7.55D-01 WtEn= 2.45D-01
 Coeff-Com:  0.100D+01
 Coeff-En:   0.100D+01
 Coeff:      0.100D+01
 Gap=     0.316 Goal=   None    Shift=    0.000
 GapD=    0.316 DampG=1.000 DampE=0.500 DampFc=0.5000 IDamp=-1.
 Damping current iteration by 5.00D-01
 RMSDP=2.34D-03 MaxDP=1.14D-01              OVMax= 1.50D-01

 Cycle   2  Pass 1  IDiag  1:
 RMSU=  1.14D-03    CP:  9.70D-01
 E= -233.526705155557     Delta-E=       -0.107072861360 Rises=F Damp=T
 DIIS: error= 5.03D-03 at cycle   2 NSaved=   2.
 NSaved= 2 IEnMin= 2 EnMin= -233.526705155557     IErMin= 2 ErrMin= 5.03D-03
 ErrMax= 5.03D-03  0.00D+00 EMaxC= 1.00D-01 BMatC= 1.45D-02 BMatP= 2.41D-01
 IDIUse=3 WtCom= 9.50D-01 WtEn= 5.03D-02
 Coeff-Com: -0.128D+00 0.113D+01
 Coeff-En:   0.000D+00 0.100D+01
 Coeff:     -0.121D+00 0.112D+01
 Gap=     0.365 Goal=   None    Shift=    0.000
 RMSDP=8.36D-04 MaxDP=5.07D-02 DE=-1.07D-01 OVMax= 7.44D-02

 Cycle   3  Pass 1  IDiag  1:
 RMSU=  8.31D-04    CP:  9.59D-01  9.80D-01
 E= -233.623334792796     Delta-E=       -0.096629637238 Rises=F Damp=F
 DIIS: error= 3.34D-03 at cycle   3 NSaved=   3.
 NSaved= 3 IEnMin= 3 EnMin= -233.623334792796     IErMin= 3 ErrMin= 3.34D-03
 ErrMax= 3.34D-03  0.00D+00 EMaxC= 1.00D-01 BMatC= 2.36D-03 BMatP= 1.45D-02
 IDIUse=3 WtCom= 9.67D-01 WtEn= 3.34D-02
 Coeff-Com: -0.711D-01 0.293D+00 0.778D+00
 Coeff-En:   0.000D+00 0.000D+00 0.100D+01
 Coeff:     -0.688D-01 0.283D+00 0.786D+00
 Gap=     0.338 Goal=   None    Shift=    0.000
 RMSDP=1.69D-04 MaxDP=9.15D-03 DE=-9.66D-02 OVMax= 1.38D-02

 Cycle   4  Pass 1  IDiag  1:
 RMSU=  1.52D-04    CP:  9.56D-01  1.04D+00  9.91D-01
 E= -233.624619979839     Delta-E=       -0.001285187043 Rises=F Damp=F
 DIIS: error= 1.63D-03 at cycle   4 NSaved=   4.
 NSaved= 4 IEnMin= 4 EnMin= -233.624619979839     IErMin= 4 ErrMin= 1.63D-03
 ErrMax= 1.63D-03  0.00D+00 EMaxC= 1.00D-01 BMatC= 8.33D-04 BMatP= 2.36D-03
 IDIUse=3 WtCom= 9.84D-01 WtEn= 1.63D-02
 Coeff-Com: -0.252D-01 0.695D-01 0.405D+00 0.551D+00
 Coeff-En:   0.000D+00 0.000D+00 0.202D+00 0.798D+00
 Coeff:     -0.248D-01 0.684D-01 0.402D+00 0.555D+00
 Gap=     0.344 Goal=   None    Shift=    0.000
 RMSDP=6.60D-05 MaxDP=4.34D-03 DE=-1.29D-03 OVMax= 5.57D-03

 Cycle   5  Pass 1  IDiag  1:
 RMSU=  4.03D-05    CP:  9.56D-01  1.03D+00  1.00D+00  6.70D-01
 E= -233.625198506332     Delta-E=       -0.000578526493 Rises=F Damp=F
 DIIS: error= 2.72D-04 at cycle   5 NSaved=   5.
 NSaved= 5 IEnMin= 5 EnMin= -233.625198506332     IErMin= 5 ErrMin= 2.72D-04
 ErrMax= 2.72D-04  0.00D+00 EMaxC= 1.00D-01 BMatC= 1.73D-05 BMatP= 8.33D-04
 IDIUse=3 WtCom= 9.97D-01 WtEn= 2.72D-03
 Coeff-Com: -0.362D-02 0.630D-02 0.921D-01 0.191D+00 0.714D+00
 Coeff-En:   0.000D+00 0.000D+00 0.000D+00 0.000D+00 0.100D+01
 Coeff:     -0.361D-02 0.628D-02 0.918D-01 0.191D+00 0.715D+00
 Gap=     0.344 Goal=   None    Shift=    0.000
 RMSDP=1.52D-05 MaxDP=5.58D-04 DE=-5.79D-04 OVMax= 7.50D-04

 Cycle   6  Pass 1  IDiag  1:
 RMSU=  1.42D-05    CP:  9.56D-01  1.02D+00  1.01D+00  6.83D-01  9.26D-01
 E= -233.625210312433     Delta-E=       -0.000011806102 Rises=F Damp=F
 DIIS: error= 5.29D-05 at cycle   6 NSaved=   6.
 NSaved= 6 IEnMin= 6 EnMin= -233.625210312433     IErMin= 6 ErrMin= 5.29D-05
 ErrMax= 5.29D-05  0.00D+00 EMaxC= 1.00D-01 BMatC= 1.25D-06 BMatP= 1.73D-05
 IDIUse=1 WtCom= 1.00D+00 WtEn= 0.00D+00
 Coeff-Com:  0.358D-03-0.198D-02 0.112D-01 0.433D-01 0.270D+00 0.678D+00
 Coeff:      0.358D-03-0.198D-02 0.112D-01 0.433D-01 0.270D+00 0.678D+00
 Gap=     0.344 Goal=   None    Shift=    0.000
 RMSDP=3.61D-06 MaxDP=2.25D-04 DE=-1.18D-05 OVMax= 2.64D-04

 Cycle   7  Pass 1  IDiag  1:
 RMSU=  2.99D-06    CP:  9.56D-01  1.02D+00  1.01D+00  6.88D-01  9.69D-01
                    CP:  9.77D-01
 E= -233.625211380413     Delta-E=       -0.000001067979 Rises=F Damp=F
 DIIS: error= 1.91D-05 at cycle   7 NSaved=   7.
 NSaved= 7 IEnMin= 7 EnMin= -233.625211380413     IErMin= 7 ErrMin= 1.91D-05
 ErrMax= 1.91D-05  0.00D+00 EMaxC= 1.00D-01 BMatC= 8.36D-08 BMatP= 1.25D-06
 IDIUse=1 WtCom= 1.00D+00 WtEn= 0.00D+00
 Coeff-Com:  0.602D-03-0.140D-02-0.899D-02-0.114D-01-0.197D-01 0.185D+00
 Coeff-Com:  0.856D+00
 Coeff:      0.602D-03-0.140D-02-0.899D-02-0.114D-01-0.197D-01 0.185D+00
 Coeff:      0.856D+00
 Gap=     0.344 Goal=   None    Shift=    0.000
 RMSDP=1.94D-06 MaxDP=7.01D-05 DE=-1.07D-06 OVMax= 7.78D-05

 Cycle   8  Pass 1  IDiag  1:
 RMSU=  1.10D-06    CP:  9.56D-01  1.02D+00  1.01D+00  6.90D-01  9.85D-01
                    CP:  1.06D+00  1.01D+00
 E= -233.625211461432     Delta-E=       -0.000000081019 Rises=F Damp=F
 DIIS: error= 2.82D-06 at cycle   8 NSaved=   8.
 NSaved= 8 IEnMin= 8 EnMin= -233.625211461432     IErMin= 8 ErrMin= 2.82D-06
 ErrMax= 2.82D-06  0.00D+00 EMaxC= 1.00D-01 BMatC= 2.23D-09 BMatP= 8.36D-08
 IDIUse=1 WtCom= 1.00D+00 WtEn= 0.00D+00
 Coeff-Com:  0.107D-03-0.229D-03-0.248D-02-0.403D-02-0.142D-01 0.183D-01
 Coeff-Com:  0.190D+00 0.813D+00
 Coeff:      0.107D-03-0.229D-03-0.248D-02-0.403D-02-0.142D-01 0.183D-01
 Coeff:      0.190D+00 0.813D+00
 Gap=     0.344 Goal=   None    Shift=    0.000
 RMSDP=3.05D-07 MaxDP=1.06D-05 DE=-8.10D-08 OVMax= 1.26D-05

 Cycle   9  Pass 1  IDiag  1:
 RMSU=  2.41D-07    CP:  9.56D-01  1.02D+00  1.01D+00  6.90D-01  9.85D-01
                    CP:  1.06D+00  1.03D+00  1.01D+00
 E= -233.625211463780     Delta-E=       -0.000000002348 Rises=F Damp=F
 DIIS: error= 5.96D-07 at cycle   9 NSaved=   9.
 NSaved= 9 IEnMin= 9 EnMin= -233.625211463780     IErMin= 9 ErrMin= 5.96D-07
 ErrMax= 5.96D-07  0.00D+00 EMaxC= 1.00D-01 BMatC= 1.36D-10 BMatP= 2.23D-09
 IDIUse=1 WtCom= 1.00D+00 WtEn= 0.00D+00
 Coeff-Com: -0.156D-04 0.346D-04-0.208D-04-0.177D-03-0.136D-02-0.547D-02
 Coeff-Com: -0.110D-01 0.161D+00 0.857D+00
 Coeff:     -0.156D-04 0.346D-04-0.208D-04-0.177D-03-0.136D-02-0.547D-02
 Coeff:     -0.110D-01 0.161D+00 0.857D+00
 Gap=     0.344 Goal=   None    Shift=    0.000
 RMSDP=8.53D-08 MaxDP=2.98D-06 DE=-2.35D-09 OVMax= 3.84D-06

 Cycle  10  Pass 1  IDiag  1:
 RMSU=  4.45D-08    CP:  9.56D-01  1.02D+00  1.01D+00  6.90D-01  9.85D-01
                    CP:  1.06D+00  1.03D+00  1.07D+00  1.06D+00
 E= -233.625211463920     Delta-E=       -0.000000000140 Rises=F Damp=F
 DIIS: error= 2.29D-07 at cycle  10 NSaved=  10.
 NSaved=10 IEnMin=10 EnMin= -233.625211463920     IErMin=10 ErrMin= 2.29D-07
 ErrMax= 2.29D-07  0.00D+00 EMaxC= 1.00D-01 BMatC= 2.01D-11 BMatP= 1.36D-10
 IDIUse=1 WtCom= 1.00D+00 WtEn= 0.00D+00
 Coeff-Com: -0.108D-04 0.238D-04 0.120D-03 0.146D-03 0.330D-03-0.285D-02
 Coeff-Com: -0.146D-01 0.114D-01 0.322D+00 0.683D+00
 Coeff:     -0.108D-04 0.238D-04 0.120D-03 0.146D-03 0.330D-03-0.285D-02
 Coeff:     -0.146D-01 0.114D-01 0.322D+00 0.683D+00
 Gap=     0.344 Goal=   None    Shift=    0.000
 RMSDP=1.57D-08 MaxDP=9.82D-07 DE=-1.40D-10 OVMax= 1.01D-06

 Cycle  11  Pass 1  IDiag  1:
 RMSU=  1.19D-08    CP:  9.56D-01  1.02D+00  1.01D+00  6.90D-01  9.85D-01
                    CP:  1.06D+00  1.03D+00  1.07D+00  1.09D+00  9.23D-01
 E= -233.625211463945     Delta-E=       -0.000000000025 Rises=F Damp=F
 DIIS: error= 3.78D-08 at cycle  11 NSaved=  11.
 NSaved=11 IEnMin=11 EnMin= -233.625211463945     IErMin=11 ErrMin= 3.78D-08
 ErrMax= 3.78D-08  0.00D+00 EMaxC= 1.00D-01 BMatC= 7.20D-13 BMatP= 2.01D-11
 IDIUse=1 WtCom= 1.00D+00 WtEn= 0.00D+00
 Coeff-Com: -0.288D-06 0.115D-05 0.205D-04 0.339D-04 0.156D-03-0.101D-03
 Coeff-Com: -0.197D-02-0.107D-01-0.181D-02 0.134D+00 0.881D+00
 Coeff:     -0.288D-06 0.115D-05 0.205D-04 0.339D-04 0.156D-03-0.101D-03
 Coeff:     -0.197D-02-0.107D-01-0.181D-02 0.134D+00 0.881D+00
 Gap=     0.344 Goal=   None    Shift=    0.000
 RMSDP=5.67D-09 MaxDP=1.70D-07 DE=-2.54D-11 OVMax= 3.91D-07

 SCF Done:  E(RM062X) =  -233.625211464     A.U. after   11 cycles
            NFock= 11  Conv=0.57D-08     -V/T= 2.0040
 KE= 2.326910712129D+02 PE=-9.390862855088D+02 EE= 2.753604512797D+02
 Leave Link  502 at Fri Mar 29 14:42:56 2019, MaxMem=   671088640 cpu:             806.0 elap:              40.3
 (Enter /shared/centos7/gaussian/g16/l801.exe)
 DoSCS=F DFT=T ScalE2(SS,OS)=  1.000000  1.000000
 Range of M.O.s used for correlation:     1   260
 NBasis=   260 NAE=    21 NBE=    21 NFC=     0 NFV=     0
 NROrb=    260 NOA=    21 NOB=    21 NVA=   239 NVB=   239

 **** Warning!!: The largest alpha MO coefficient is  0.40176566D+02

 Leave Link  801 at Fri Mar 29 14:42:56 2019, MaxMem=   671088640 cpu:               0.5 elap:               0.0
 (Enter /shared/centos7/gaussian/g16/l1101.exe)
 Using compressed storage, NAtomX=    15.
 Will process     16 centers per pass.
 Leave Link 1101 at Fri Mar 29 14:42:57 2019, MaxMem=   671088640 cpu:               9.7 elap:               0.5
 (Enter /shared/centos7/gaussian/g16/l1102.exe)
 Symmetrizing basis deriv contribution to polar:
 IMax=3 JMax=2 DiffMx= 0.00D+00
 Leave Link 1102 at Fri Mar 29 14:42:57 2019, MaxMem=   671088640 cpu:               2.4 elap:               0.2
 (Enter /shared/centos7/gaussian/g16/l1110.exe)
 Forming Gx(P) for the SCF density, NAtomX=    15.
 Integral derivatives from FoFJK, PRISM(SPDF).
 Do as many integral derivatives as possible in FoFJK.
 G2DrvN: MDV=     671087424.
 G2DrvN: will do    16 centers at a time, making    1 passes.
 Calling FoFCou, ICntrl=  3107 FMM=F I1Cent=   0 AccDes= 0.00D+00.
 FoFJK:  IHMeth= 1 ICntrl=    3107 DoSepK=F KAlg= 0 I1Cent=           0 FoldK=F
 IRaf=         0 NMat=       1 IRICut=       1 DoRegI=T DoRafI=F ISym2E= 0 IDoP0=0 IntGTp=1.
 FoFCou: FMM=F IPFlag=           0 FMFlag=      100000 FMFlg1=           0
         NFxFlg=           0 DoJE=F BraDBF=F KetDBF=F FulRan=T
         wScrn=  0.000000 ICntrl=      3107 IOpCl=  0 I1Cent=           0 NGrid=           0
         NMat0=    1 NMatS0=      1 NMatT0=    0 NMatD0=    1 NMtDS0=    0 NMtDT0=    0
 Symmetry not used in FoFCou.
 End of G2Drv F.D. properties file   721 does not exist.
 End of G2Drv F.D. properties file   722 does not exist.
 End of G2Drv F.D. properties file   788 does not exist.
 Leave Link 1110 at Fri Mar 29 14:44:33 2019, MaxMem=   671088640 cpu:            1918.6 elap:              96.0
 (Enter /shared/centos7/gaussian/g16/l1002.exe)
 Minotr:  Closed shell wavefunction.
          IDoAtm=111111111111111
          Direct CPHF calculation.
          Differentiating once with respect to nuclear coordinates.
          Requested convergence is 1.0D-08 RMS, and 1.0D-07 maximum.
          Secondary convergence is 1.0D-12 RMS, and 1.0D-12 maximum.
          NewPWx=T KeepS1=F KeepF1=F KeepIn=T MapXYZ=F SortEE=F KeepMc=T.
         4562 words used for storage of precomputed grid.
 Keep R1 ints in memory in canonical form, NReq=597923364.
 FoFCou: FMM=F IPFlag=           0 FMFlag=           0 FMFlg1=           0
         NFxFlg=           0 DoJE=F BraDBF=F KetDBF=F FulRan=T
         wScrn=  0.000000 ICntrl=       600 IOpCl=  0 I1Cent=           0 NGrid=           0
         NMat0=    1 NMatS0=  33930 NMatT0=    0 NMatD0=    1 NMtDS0=    0 NMtDT0=    0
 Symmetry not used in FoFCou.
 Two-electron integral symmetry not used.
          MDV=     671088640 using IRadAn=       1.
          Solving linear equations simultaneously, MaxMat=       0.
          There are    48 degrees of freedom in the 1st order CPHF.  IDoFFX=6 NUNeed=     0.
     42 vectors produced by pass  0 Test12= 1.05D-14 2.08D-09 XBig12= 6.89D-02 5.88D-02.
 AX will form    42 AO Fock derivatives at one time.
     42 vectors produced by pass  1 Test12= 1.05D-14 2.08D-09 XBig12= 3.05D-03 1.09D-02.
     42 vectors produced by pass  2 Test12= 1.05D-14 2.08D-09 XBig12= 6.46D-05 1.06D-03.
     42 vectors produced by pass  3 Test12= 1.05D-14 2.08D-09 XBig12= 4.46D-07 9.78D-05.
     42 vectors produced by pass  4 Test12= 1.05D-14 2.08D-09 XBig12= 2.64D-09 5.18D-06.
     42 vectors produced by pass  5 Test12= 1.05D-14 2.08D-09 XBig12= 1.23D-11 3.70D-07.
     19 vectors produced by pass  6 Test12= 1.05D-14 2.08D-09 XBig12= 4.67D-14 1.75D-08.
 InvSVY:  IOpt=1 It=  1 EMax= 1.44D-15
 Solved reduced A of dimension   271 with    42 vectors.
 End of Minotr F.D. properties file   721 does not exist.
 End of Minotr F.D. properties file   722 does not exist.
 End of Minotr F.D. properties file   788 does not exist.
 Leave Link 1002 at Fri Mar 29 14:46:14 2019, MaxMem=   671088640 cpu:            2011.2 elap:             101.0
 (Enter /shared/centos7/gaussian/g16/l601.exe)
 Copying SCF densities to generalized density rwf, IOpCl= 0 IROHF=0.

 **********************************************************************

            Population analysis using the SCF density.

 **********************************************************************

 Orbital symmetries:
       Occupied  (A) (A) (A) (A) (A) (A) (A) (A) (A) (A) (A) (A)
                 (A) (A) (A) (A) (A) (A) (A) (A) (A)
       Virtual   (A) (A) (A) (A) (A) (A) (A) (A) (A) (A) (A) (A)
                 (A) (A) (A) (A) (A) (A) (A) (A) (A) (A) (A) (A)
                 (A) (A) (A) (A) (A) (A) (A) (A) (A) (A) (A) (A)
                 (A) (A) (A) (A) (A) (A) (A) (A) (A) (A) (A) (A)
                 (A) (A) (A) (A) (A) (A) (A) (A) (A) (A) (A) (A)
                 (A) (A) (A) (A) (A) (A) (A) (A) (A) (A) (A) (A)
                 (A) (A) (A) (A) (A) (A) (A) (A) (A) (A) (A) (A)
                 (A) (A) (A) (A) (A) (A) (A) (A) (A) (A) (A) (A)
                 (A) (A) (A) (A) (A) (A) (A) (A) (A) (A) (A) (A)
                 (A) (A) (A) (A) (A) (A) (A) (A) (A) (A) (A) (A)
                 (A) (A) (A) (A) (A) (A) (A) (A) (A) (A) (A) (A)
                 (A) (A) (A) (A) (A) (A) (A) (A) (A) (A) (A) (A)
                 (A) (A) (A) (A) (A) (A) (A) (A) (A) (A) (A) (A)
                 (A) (A) (A) (A) (A) (A) (A) (A) (A) (A) (A) (A)
                 (A) (A) (A) (A) (A) (A) (A) (A) (A) (A) (A) (A)
                 (A) (A) (A) (A) (A) (A) (A) (A) (A) (A) (A) (A)
                 (A) (A) (A) (A) (A) (A) (A) (A) (A) (A) (A) (A)
                 (A) (A) (A) (A) (A) (A) (A) (A) (A) (A) (A) (A)
                 (A) (A) (A) (A) (A) (A) (A) (A) (A) (A) (A) (A)
                 (A) (A) (A) (A) (A) (A) (A) (A) (A) (A) (A)
 The electronic state is 1-A.
 Alpha  occ. eigenvalues --  -19.61883 -10.58475 -10.57200 -10.52259 -10.51896
 Alpha  occ. eigenvalues --   -1.15676  -0.88286  -0.78896  -0.76366  -0.66215
 Alpha  occ. eigenvalues --   -0.57209  -0.53943  -0.53432  -0.49720  -0.46117
 Alpha  occ. eigenvalues --   -0.45467  -0.44151  -0.41440  -0.40884  -0.37592
 Alpha  occ. eigenvalues --   -0.32738
 Alpha virt. eigenvalues --    0.01674   0.03002   0.03482   0.03958   0.05589
 Alpha virt. eigenvalues --    0.06606   0.06978   0.07604   0.07801   0.09522
 Alpha virt. eigenvalues --    0.10167   0.11183   0.12179   0.13180   0.13690
 Alpha virt. eigenvalues --    0.15495   0.18059   0.19590   0.21181   0.21799
 Alpha virt. eigenvalues --    0.22749   0.24521   0.25188   0.25611   0.26141
 Alpha virt. eigenvalues --    0.27208   0.27494   0.28554   0.29741   0.30458
 Alpha virt. eigenvalues --    0.31497   0.34302   0.36530   0.38603   0.40325
 Alpha virt. eigenvalues --    0.42697   0.44725   0.45123   0.49520   0.50393
 Alpha virt. eigenvalues --    0.51029   0.53032   0.53967   0.55597   0.56470
 Alpha virt. eigenvalues --    0.56654   0.57808   0.58920   0.59430   0.60701
 Alpha virt. eigenvalues --    0.62106   0.62340   0.63762   0.65734   0.67909
 Alpha virt. eigenvalues --    0.70259   0.70730   0.71810   0.74083   0.77105
 Alpha virt. eigenvalues --    0.80322   0.83183   0.86118   0.88975   0.89524
 Alpha virt. eigenvalues --    0.91546   0.95860   0.97286   0.98253   1.00250
 Alpha virt. eigenvalues --    1.03923   1.05488   1.07278   1.08075   1.10301
 Alpha virt. eigenvalues --    1.12261   1.13267   1.13959   1.17018   1.17335
 Alpha virt. eigenvalues --    1.19518   1.20950   1.22054   1.22936   1.24825
 Alpha virt. eigenvalues --    1.26197   1.29900   1.30119   1.31131   1.32787
 Alpha virt. eigenvalues --    1.34588   1.35537   1.37577   1.38873   1.39767
 Alpha virt. eigenvalues --    1.40993   1.42284   1.44590   1.46575   1.48092
 Alpha virt. eigenvalues --    1.49167   1.50857   1.52245   1.54200   1.56811
 Alpha virt. eigenvalues --    1.58777   1.61193   1.61955   1.62065   1.65839
 Alpha virt. eigenvalues --    1.68458   1.69546   1.75904   1.86401   2.05522
 Alpha virt. eigenvalues --    2.11578   2.11950   2.25240   2.37488   2.39953
 Alpha virt. eigenvalues --    2.41321   2.47891   2.54513   2.55483   2.59987
 Alpha virt. eigenvalues --    2.62468   2.66045   2.70916   2.73033   2.77720
 Alpha virt. eigenvalues --    2.82582   2.88754   2.90941   2.96092   2.97496
 Alpha virt. eigenvalues --    2.99080   3.00502   3.03311   3.04182   3.08561
 Alpha virt. eigenvalues --    3.10466   3.12982   3.13820   3.14916   3.17390
 Alpha virt. eigenvalues --    3.19665   3.21578   3.23711   3.26870   3.29914
 Alpha virt. eigenvalues --    3.31938   3.34531   3.36983   3.38022   3.38873
 Alpha virt. eigenvalues --    3.42364   3.43861   3.46723   3.49792   3.52629
 Alpha virt. eigenvalues --    3.54031   3.56854   3.58314   3.61676   3.61869
 Alpha virt. eigenvalues --    3.64908   3.70964   3.72525   3.75796   3.78025
 Alpha virt. eigenvalues --    3.81275   3.81892   3.85062   3.87707   3.90015
 Alpha virt. eigenvalues --    3.93306   3.95442   3.99091   4.00966   4.02054
 Alpha virt. eigenvalues --    4.03632   4.07810   4.08120   4.12914   4.17610
 Alpha virt. eigenvalues --    4.18802   4.19755   4.20853   4.21749   4.23376
 Alpha virt. eigenvalues --    4.25054   4.26527   4.29136   4.30332   4.32839
 Alpha virt. eigenvalues --    4.35567   4.37055   4.39593   4.44859   4.49942
 Alpha virt. eigenvalues --    4.50737   4.51519   4.55449   4.57056   4.60060
 Alpha virt. eigenvalues --    4.61395   4.65457   4.72879   4.82901   4.94127
 Alpha virt. eigenvalues --    5.19290   5.27587   5.29844   5.33803   5.41939
 Alpha virt. eigenvalues --    5.48185   5.53711   5.56229   5.59054   5.61026
 Alpha virt. eigenvalues --    5.61591   5.64338   5.66914   5.69680   5.84078
 Alpha virt. eigenvalues --    5.91626   6.23273   6.50648   6.73829   7.21133
 Alpha virt. eigenvalues --    7.23074   7.36743   7.73314   7.78548  24.33086
 Alpha virt. eigenvalues --   24.41833  24.45379  24.51791  50.20678
          Condensed to atoms (all electrons):
               1          2          3          4          5          6
     1  O    8.244190   0.230924  -0.128511  -0.128101   0.110731  -0.043088
     2  C    0.230924   5.313850   0.172562   0.320977  -0.107366   0.467079
     3  C   -0.128511   0.172562   5.283903  -0.123950   0.015708  -0.066265
     4  C   -0.128101   0.320977  -0.123950   5.180315  -0.020010  -0.023952
     5  C    0.110731  -0.107366   0.015708  -0.020010   4.986497  -0.010216
     6  H   -0.043088   0.467079  -0.066265  -0.023952  -0.010216   0.520575
     7  H   -0.003709  -0.033546   0.430097  -0.014525  -0.004050   0.005834
     8  H   -0.008185  -0.016706   0.391988   0.008598   0.005215  -0.007413
     9  H    0.009666  -0.043919   0.420020  -0.001339  -0.000984  -0.002257
    10  H    0.013621  -0.047495  -0.009863   0.430025   0.001573  -0.006481
    11  H   -0.005107  -0.028355   0.020010   0.397394  -0.001192  -0.006368
    12  H   -0.010587  -0.006454  -0.016181   0.398732  -0.000692   0.005990
    13  H   -0.051545  -0.003666   0.000482  -0.007803   0.447659  -0.001664
    14  H   -0.044497   0.000672  -0.001660   0.002202   0.421446   0.006207
    15  H   -0.059217   0.010960   0.000171   0.002645   0.429886   0.000201
               7          8          9         10         11         12
     1  O   -0.003709  -0.008185   0.009666   0.013621  -0.005107  -0.010587
     2  C   -0.033546  -0.016706  -0.043919  -0.047495  -0.028355  -0.006454
     3  C    0.430097   0.391988   0.420020  -0.009863   0.020010  -0.016181
     4  C   -0.014525   0.008598  -0.001339   0.430025   0.397394   0.398732
     5  C   -0.004050   0.005215  -0.000984   0.001573  -0.001192  -0.000692
     6  H    0.005834  -0.007413  -0.002257  -0.006481  -0.006368   0.005990
     7  H    0.504078  -0.028742  -0.028478   0.000258  -0.000186   0.002088
     8  H   -0.028742   0.545834  -0.024584   0.000203  -0.000285  -0.000005
     9  H   -0.028478  -0.024584   0.528923   0.000462   0.000124  -0.000536
    10  H    0.000258   0.000203   0.000462   0.532517  -0.022559  -0.032235
    11  H   -0.000186  -0.000285   0.000124  -0.022559   0.521618  -0.025440
    12  H    0.002088  -0.000005  -0.000536  -0.032235  -0.025440   0.526917
    13  H   -0.000083  -0.003341  -0.000154   0.000019   0.000015  -0.000027
    14  H    0.000270  -0.001214   0.000039  -0.000006   0.000019  -0.000001
    15  H   -0.000147   0.000396   0.000045   0.000015  -0.000038   0.000025
              13         14         15
     1  O   -0.051545  -0.044497  -0.059217
     2  C   -0.003666   0.000672   0.010960
     3  C    0.000482  -0.001660   0.000171
     4  C   -0.007803   0.002202   0.002645
     5  C    0.447659   0.421446   0.429886
     6  H   -0.001664   0.006207   0.000201
     7  H   -0.000083   0.000270  -0.000147
     8  H   -0.003341  -0.001214   0.000396
     9  H   -0.000154   0.000039   0.000045
    10  H    0.000019  -0.000006   0.000015
    11  H    0.000015   0.000019  -0.000038
    12  H   -0.000027  -0.000001   0.000025
    13  H    0.575427  -0.052821  -0.028047
    14  H   -0.052821   0.575320  -0.021819
    15  H   -0.028047  -0.021819   0.528863
 Mulliken charges:
               1
     1  O   -0.126583
     2  C   -0.229518
     3  C   -0.388511
     4  C   -0.421209
     5  C   -0.274206
     6  H    0.161818
     7  H    0.170841
     8  H    0.138243
     9  H    0.142972
    10  H    0.139944
    11  H    0.150348
    12  H    0.158407
    13  H    0.125550
    14  H    0.115843
    15  H    0.136060
 Sum of Mulliken charges =  -0.00000
 Mulliken charges with hydrogens summed into heavy atoms:
               1
     1  O   -0.126583
     2  C   -0.067699
     3  C    0.063545
     4  C    0.027490
     5  C    0.103248
 APT charges:
               1
     1  O   -0.069996
     2  C   -0.306609
     3  C   -1.085551
     4  C   -1.188005
     5  C   -1.202600
     6  H    0.358126
     7  H    0.344782
     8  H    0.347732
     9  H    0.441663
    10  H    0.450638
    11  H    0.383409
    12  H    0.340012
    13  H    0.331651
    14  H    0.327899
    15  H    0.526850
 Sum of APT charges =  -0.00000
 APT charges with hydrogens summed into heavy atoms:
               1
     1  O   -0.069996
     2  C    0.051517
     3  C    0.048627
     4  C   -0.013947
     5  C   -0.016199
 Electronic spatial extent (au):  <R**2>=            501.4204
 Charge=             -0.0000 electrons
 Dipole moment (field-independent basis, Debye):
    X=              0.0422    Y=              0.9839    Z=              0.8432  Tot=              1.2965
 Quadrupole moment (field-independent basis, Debye-Ang):
   XX=            -30.8133   YY=            -34.5545   ZZ=            -33.7825
   XY=              0.3859   XZ=              0.2440   YZ=             -0.6260
 Traceless Quadrupole moment (field-independent basis, Debye-Ang):
   XX=              2.2368   YY=             -1.5044   ZZ=             -0.7324
   XY=              0.3859   XZ=              0.2440   YZ=             -0.6260
 Octapole moment (field-independent basis, Debye-Ang**2):
  XXX=              8.8253  YYY=             -2.7359  ZZZ=             -1.0565  XYY=              1.0514
  XXY=             -1.3282  XXZ=             -0.1274  XZZ=              0.4215  YZZ=             -0.5079
  YYZ=              0.2679  XYZ=             -0.4102
 Hexadecapole moment (field-independent basis, Debye-Ang**3):
 XXXX=           -394.8652 YYYY=           -212.1425 ZZZZ=            -71.9189 XXXY=            -10.1528
 XXXZ=             -6.9442 YYYX=              0.7949 YYYZ=              0.2027 ZZZX=              2.1009
 ZZZY=             -0.5987 XXYY=           -101.0846 XXZZ=            -79.5332 YYZZ=            -48.3550
 XXYZ=              2.5317 YYXZ=             -1.9114 ZZXY=             -0.8620
 N-N= 1.974095515522D+02 E-N=-9.390862869462D+02  KE= 2.326910712129D+02
  Exact polarizability:   0.000   0.000   0.000   0.000   0.000   0.000
 Approx polarizability:  63.799  -0.230  60.710  -0.286   0.810  61.225
 No NMR shielding tensors so no spin-rotation constants.
 Leave Link  601 at Fri Mar 29 14:46:14 2019, MaxMem=   671088640 cpu:               6.8 elap:               0.4
 (Enter /shared/centos7/gaussian/g16/l701.exe)
 ... and contract with generalized density number  0.
 Compute integral second derivatives.
 Leave Link  701 at Fri Mar 29 14:46:15 2019, MaxMem=   671088640 cpu:              10.1 elap:               0.5
 (Enter /shared/centos7/gaussian/g16/l702.exe)
 L702 exits ... SP integral derivatives will be done elsewhere.
 Leave Link  702 at Fri Mar 29 14:46:15 2019, MaxMem=   671088640 cpu:               0.5 elap:               0.0
 (Enter /shared/centos7/gaussian/g16/l703.exe)
 Integral derivatives from FoFJK, PRISM(SPDF).
 Compute integral second derivatives, UseDBF=F ICtDFT=           0.
 Calling FoFJK, ICntrl=    100147 FMM=F ISym2X=0 I1Cent= 0 IOpClX= 0 NMat=1 NMatS=1 NMatT=0.
 FoFJK:  IHMeth= 1 ICntrl=  100147 DoSepK=F KAlg= 0 I1Cent=           0 FoldK=F
 IRaf=         0 NMat=       1 IRICut=       1 DoRegI=T DoRafI=F ISym2E= 0 IDoP0=0 IntGTp=1.
 FoFCou: FMM=F IPFlag=           0 FMFlag=      100000 FMFlg1=         800
         NFxFlg=           0 DoJE=F BraDBF=F KetDBF=F FulRan=T
         wScrn=  0.000000 ICntrl=    100147 IOpCl=  0 I1Cent=           0 NGrid=           0
         NMat0=    1 NMatS0=      1 NMatT0=    0 NMatD0=    1 NMtDS0=    0 NMtDT0=    0
 Symmetry not used in FoFCou.
 Leave Link  703 at Fri Mar 29 14:48:28 2019, MaxMem=   671088640 cpu:            2660.6 elap:             133.1
 (Enter /shared/centos7/gaussian/g16/l716.exe)
 Dipole        = 1.65895407D-02 3.87105250D-01 3.31756386D-01
 Polarizability= 0.00000000D+00 0.00000000D+00 0.00000000D+00
                 0.00000000D+00 0.00000000D+00 0.00000000D+00
 ***** Axes restored to original set *****
 -------------------------------------------------------------------
 Center     Atomic                   Forces (Hartrees/Bohr)
 Number     Number              X              Y              Z
 -------------------------------------------------------------------
      1        8          -0.000000597   -0.000000837    0.000000533
      2        6          -0.000000210    0.000000418   -0.000000039
      3        6           0.000001239    0.000000400   -0.000000681
      4        6          -0.000000856    0.000001388   -0.000000057
      5        6          -0.000000267   -0.000001822    0.000000693
      6        1          -0.000000568    0.000000720    0.000000022
      7        1           0.000001605    0.000000039   -0.000000729
      8        1           0.000001711   -0.000000253   -0.000000678
      9        1           0.000001499    0.000001395   -0.000001117
     10        1          -0.000000664    0.000002405   -0.000000476
     11        1          -0.000001898    0.000001394    0.000000396
     12        1          -0.000000526    0.000001106   -0.000000130
     13        1           0.000000795   -0.000002173    0.000000354
     14        1          -0.000000530   -0.000001485    0.000000720
     15        1          -0.000000733   -0.000002695    0.000001189
 -------------------------------------------------------------------
 Cartesian Forces:  Max     0.000002695 RMS     0.000001100
 FormGI is forming the generalized inverse of G from B-inverse, IUseBI=4.
 Leave Link  716 at Fri Mar 29 14:48:28 2019, MaxMem=   671088640 cpu:               0.6 elap:               0.0
 (Enter /shared/centos7/gaussian/g16/l103.exe)

 GradGradGradGradGradGradGradGradGradGradGradGradGradGradGradGradGradGrad
 Berny optimization.
 Red2BG is reusing G-inverse.
 Internal  Forces:  Max     0.000000020 RMS     0.000000006
 Search for a local minimum.
 Step number   1 out of a maximum of   73 on scan point     1 out of    13
 All quantities printed in internal units (Hartrees-Bohrs-Radians)
 RMS Force = .58895D-08 SwitMx=.10000D-02 MixMth= 2
 Mixed Optimization -- En-DIIS/RFO-DIIS
 Second derivative matrix not updated -- analytic derivatives used.
 ITU=  0
     Eigenvalues ---    0.00243   0.00384   0.00749   0.01713   0.04193
     Eigenvalues ---    0.04362   0.04483   0.04561   0.05427   0.06489
     Eigenvalues ---    0.08752   0.08856   0.12026   0.12394   0.12579
     Eigenvalues ---    0.13204   0.13387   0.14191   0.14851   0.18261
     Eigenvalues ---    0.18755   0.20008   0.20539   0.25763   0.29210
     Eigenvalues ---    0.31038   0.31773   0.32649   0.33515   0.34116
     Eigenvalues ---    0.34313   0.34376   0.34619   0.34793   0.35102
     Eigenvalues ---    0.35241   0.39434   0.452791000.000001000.00000
     Eigenvalues --- 1000.000001000.000001000.000001000.000001000.00000
     Eigenvalues --- 1000.000001000.000001000.000001000.000001000.00000
     Eigenvalues --- 1000.000001000.000001000.000001000.000001000.00000
     Eigenvalues --- 1000.000001000.000001000.000001000.000001000.00000
     Eigenvalues --- 1000.000001000.000001000.00000
 RFO step:  Lambda= 0.00000000D+00 EMin= 2.42815854D-03
 Linear search not attempted -- first point.
 Iteration  1 RMS(Cart)=  0.00000141 RMS(Int)=  0.00000000
 Iteration  2 RMS(Cart)=  0.00000000 RMS(Int)=  0.00000000
 Iteration  1 RMS(Cart)=  0.00000000 RMS(Int)=  0.00000000
 ITry= 1 IFail=0 DXMaxC= 6.19D-06 DCOld= 1.00D+10 DXMaxT= 3.00D-01 DXLimC= 3.00D+00 Rises=F
 Variable       Old X    -DE/DX   Delta X   Delta X   Delta X     New X
                                 (Linear)    (Quad)   (Total)
    R1        2.67539  -0.00000   0.00000   0.00000   0.00000   2.67539
    R2        2.65187  -0.00000   0.00000  -0.00000  -0.00000   2.65187
    R3        2.87851   0.00000   0.00000   0.00000   0.00000   2.87851
    R4        2.86451  -0.00000   0.00000   0.00000   0.00000   2.86451
    R5        2.07759   0.00000   0.00000  -0.00000  -0.00000   2.07759
    R6        2.06155   0.00000   0.00000  -0.00000  -0.00000   2.06155
    R7        2.05800   0.00000   0.00000   0.00000   0.00000   2.05800
    R8        2.05938  -0.00000   0.00000  -0.00000  -0.00000   2.05938
    R9        2.05861   0.00000   0.00000   0.00000   0.00000   2.05861
   R10        2.05682  -0.00000   0.00000  -0.00000  -0.00000   2.05682
   R11        2.06054   0.00000   0.00000   0.00000   0.00000   2.06054
   R12        2.06653  -0.00000   0.00000  -0.00000  -0.00000   2.06653
   R13        2.07139   0.00000   0.00000   0.00000   0.00000   2.07139
   R14        2.05519   0.00000   0.00000   0.00000   0.00000   2.05519
    A1        2.00014  -0.00000   0.00000  -0.00000  -0.00000   2.00014
    A2        1.95522  -0.00000   0.00000  -0.00000  -0.00000   1.95522
    A3        1.85646  -0.00000   0.00000   0.00000   0.00000   1.85646
    A4        1.89076   0.00000   0.00000   0.00000   0.00000   1.89076
    A5        1.94901   0.00000   0.00000   0.00000   0.00000   1.94901
    A6        1.90231   0.00000   0.00000   0.00000   0.00000   1.90231
    A7        1.90863  -0.00000   0.00000  -0.00000  -0.00000   1.90863
    A8        1.91387  -0.00000   0.00000  -0.00000  -0.00000   1.91387
    A9        1.95591   0.00000   0.00000  -0.00000  -0.00000   1.95591
   A10        1.92150  -0.00000   0.00000   0.00000   0.00000   1.92150
   A11        1.89628   0.00000   0.00000   0.00000   0.00000   1.89628
   A12        1.89468  -0.00000   0.00000  -0.00000  -0.00000   1.89468
   A13        1.88027   0.00000   0.00000   0.00000   0.00000   1.88027
   A14        1.93123   0.00000   0.00000   0.00000   0.00000   1.93123
   A15        1.92626  -0.00000   0.00000  -0.00000  -0.00000   1.92626
   A16        1.91521   0.00000   0.00000   0.00000   0.00000   1.91521
   A17        1.90150  -0.00000   0.00000  -0.00000  -0.00000   1.90150
   A18        1.89636  -0.00000   0.00000   0.00000   0.00000   1.89636
   A19        1.89258  -0.00000   0.00000  -0.00000  -0.00000   1.89258
   A20        1.95826   0.00000   0.00000   0.00000   0.00000   1.95826
   A21        1.93986  -0.00000   0.00000  -0.00000  -0.00000   1.93986
   A22        1.87283   0.00000   0.00000   0.00000   0.00000   1.87283
   A23        1.89605  -0.00000   0.00000  -0.00000  -0.00000   1.89605
   A24        1.89537  -0.00000   0.00000  -0.00000  -0.00000   1.89537
   A25        1.90020   0.00000   0.00000   0.00000   0.00000   1.90020
    D1        1.16720   0.00000   0.00000   0.00000   0.00000   1.16720
    D2       -2.98190   0.00000   0.00000   0.00000   0.00000  -2.98190
    D3       -0.93172   0.00000   0.00000   0.00000   0.00000  -0.93172
    D4       -1.25307   0.00000   0.00000   0.00000   0.00000  -1.25306
    D5        0.87385   0.00000   0.00000   0.00000   0.00000   0.87385
    D6        2.94962  -0.00000   0.00000   0.00000   0.00000   2.94962
    D7        0.98307   0.00000   0.00000   0.00000   0.00000   0.98307
    D8       -1.12429  -0.00000   0.00000   0.00000   0.00000  -1.12429
    D9        3.06656  -0.00000   0.00000   0.00000   0.00000   3.06656
   D10       -1.09734   0.00000   0.00000   0.00000   0.00000  -1.09734
   D11        3.07849  -0.00000   0.00000   0.00000   0.00000   3.07849
   D12        0.98615  -0.00000   0.00000   0.00000   0.00000   0.98615
   D13        3.07525   0.00000   0.00000   0.00000   0.00000   3.07525
   D14        0.96789   0.00000   0.00000   0.00000   0.00000   0.96789
   D15       -1.12444   0.00000   0.00000   0.00000   0.00000  -1.12444
   D16        3.09055  -0.00000   0.00000  -0.00000  -0.00000   3.09055
   D17        0.98450  -0.00000   0.00000  -0.00000  -0.00000   0.98450
   D18       -1.10018  -0.00000   0.00000  -0.00000  -0.00000  -1.10018
   D19       -1.05463  -0.00000   0.00000  -0.00000  -0.00000  -1.05463
   D20        3.12251  -0.00000   0.00000  -0.00000  -0.00000   3.12251
   D21        1.03783   0.00000   0.00000  -0.00000  -0.00000   1.03783
   D22        1.05228  -0.00000   0.00000  -0.00000  -0.00000   1.05228
   D23       -1.05377  -0.00000   0.00000  -0.00000  -0.00000  -1.05377
   D24       -3.13845   0.00000   0.00000  -0.00000  -0.00000  -3.13845
         Item               Value     Threshold  Converged?
 Maximum Force            0.000000     0.000450     YES
 RMS     Force            0.000000     0.000300     YES
 Maximum Displacement     0.000006     0.001800     YES
 RMS     Displacement     0.000001     0.001200     YES
 Predicted change in Energy=-5.223758D-14
 Optimization completed.
    -- Stationary point found.
                           ----------------------------
                           !   Optimized Parameters   !
                           ! (Angstroms and Degrees)  !
 --------------------------                            --------------------------
 ! Name  Definition              Value          Derivative Info.                !
 --------------------------------------------------------------------------------
 ! R1    R(1,2)                  1.4158         -DE/DX =    0.0                 !
 ! R2    R(1,5)                  1.4033         -DE/DX =    0.0                 !
 ! R3    R(2,3)                  1.5232         -DE/DX =    0.0                 !
 ! R4    R(2,4)                  1.5158         -DE/DX =    0.0                 !
 ! R5    R(2,6)                  1.0994         -DE/DX =    0.0                 !
 ! R6    R(3,7)                  1.0909         -DE/DX =    0.0                 !
 ! R7    R(3,8)                  1.089          -DE/DX =    0.0                 !
 ! R8    R(3,9)                  1.0898         -DE/DX =    0.0                 !
 ! R9    R(4,10)                 1.0894         -DE/DX =    0.0                 !
 ! R10   R(4,11)                 1.0884         -DE/DX =    0.0                 !
 ! R11   R(4,12)                 1.0904         -DE/DX =    0.0                 !
 ! R12   R(5,13)                 1.0936         -DE/DX =    0.0                 !
 ! R13   R(5,14)                 1.0961         -DE/DX =    0.0                 !
 ! R14   R(5,15)                 1.0876         -DE/DX =    0.0                 !
 ! A1    A(2,1,5)              114.5994         -DE/DX =    0.0                 !
 ! A2    A(1,2,3)              112.0256         -DE/DX =    0.0                 !
 ! A3    A(1,2,4)              106.3672         -DE/DX =    0.0                 !
 ! A4    A(1,2,6)              108.3324         -DE/DX =    0.0                 !
 ! A5    A(3,2,4)              111.6702         -DE/DX =    0.0                 !
 ! A6    A(3,2,6)              108.9941         -DE/DX =    0.0                 !
 ! A7    A(4,2,6)              109.3567         -DE/DX =    0.0                 !
 ! A8    A(2,3,7)              109.6568         -DE/DX =    0.0                 !
 ! A9    A(2,3,8)              112.0657         -DE/DX =    0.0                 !
 ! A10   A(2,3,9)              110.0941         -DE/DX =    0.0                 !
 ! A11   A(7,3,8)              108.6488         -DE/DX =    0.0                 !
 ! A12   A(7,3,9)              108.5573         -DE/DX =    0.0                 !
 ! A13   A(8,3,9)              107.7313         -DE/DX =    0.0                 !
 ! A14   A(2,4,10)             110.6511         -DE/DX =    0.0                 !
 ! A15   A(2,4,11)             110.3663         -DE/DX =    0.0                 !
 ! A16   A(2,4,12)             109.7335         -DE/DX =    0.0                 !
 ! A17   A(10,4,11)            108.948          -DE/DX =    0.0                 !
 ! A18   A(10,4,12)            108.6532         -DE/DX =    0.0                 !
 ! A19   A(11,4,12)            108.4369         -DE/DX =    0.0                 !
 ! A20   A(1,5,13)             112.1999         -DE/DX =    0.0                 !
 ! A21   A(1,5,14)             111.1458         -DE/DX =    0.0                 !
 ! A22   A(1,5,15)             107.3052         -DE/DX =    0.0                 !
 ! A23   A(13,5,14)            108.6358         -DE/DX =    0.0                 !
 ! A24   A(13,5,15)            108.5968         -DE/DX =    0.0                 !
 ! A25   A(14,5,15)            108.8734         -DE/DX =    0.0                 !
 ! D1    D(5,1,2,3)             66.8754         -DE/DX =    0.0                 !
 ! D2    D(5,1,2,4)           -170.8503         -DE/DX =    0.0                 !
 ! D3    D(5,1,2,6)            -53.3837         -DE/DX =    0.0                 !
 ! D4    D(2,1,5,13)           -71.7954         -DE/DX =    0.0                 !
 ! D5    D(2,1,5,14)            50.0681         -DE/DX =    0.0                 !
 ! D6    D(2,1,5,15)           169.001          -DE/DX =    0.0                 !
 ! D7    D(1,2,3,7)             56.326          -DE/DX =    0.0                 !
 ! D8    D(1,2,3,8)            -64.4168         -DE/DX =    0.0                 !
 ! D9    D(1,2,3,9)            175.7012         -DE/DX =    0.0                 !
 ! D10   D(4,2,3,7)            -62.8728         -DE/DX =    0.0                 !
 ! D11   D(4,2,3,8)            176.3844         -DE/DX =    0.0                 !
 ! D12   D(4,2,3,9)             56.5024         -DE/DX =    0.0                 !
 ! D13   D(6,2,3,7)            176.199          -DE/DX =    0.0                 !
 ! D14   D(6,2,3,8)             55.4562         -DE/DX =    0.0                 !
 ! D15   D(6,2,3,9)            -64.4258         -DE/DX =    0.0                 !
 ! D16   D(1,2,4,10)           177.0752         -DE/DX =    0.0                 !
 ! D17   D(1,2,4,11)            56.4075         -DE/DX =    0.0                 !
 ! D18   D(1,2,4,12)           -63.0356         -DE/DX =    0.0                 !
 ! D19   D(3,2,4,10)           -60.4258         -DE/DX =    0.0                 !
 ! D20   D(3,2,4,11)           178.9065         -DE/DX =    0.0                 !
 ! D21   D(3,2,4,12)            59.4633         -DE/DX =    0.0                 !
 ! D22   D(6,2,4,10)            60.2911         -DE/DX =    0.0                 !
 ! D23   D(6,2,4,11)           -60.3766         -DE/DX =    0.0                 !
 ! D24   D(6,2,4,12)          -179.8198         -DE/DX =    0.0                 !
 --------------------------------------------------------------------------------
 Lowest energy point so far.  Saving SCF results.
 Iteration  1 RMS(Cart)=  0.01237758 RMS(Int)=  0.05774376
 Iteration  2 RMS(Cart)=  0.00458547 RMS(Int)=  0.05542686
 Iteration  3 RMS(Cart)=  0.00175950 RMS(Int)=  0.05468154
 Iteration  4 RMS(Cart)=  0.00067663 RMS(Int)=  0.05441727
 Iteration  5 RMS(Cart)=  0.00026043 RMS(Int)=  0.05431893
 Iteration  6 RMS(Cart)=  0.00010026 RMS(Int)=  0.05428158
 Iteration  7 RMS(Cart)=  0.00003860 RMS(Int)=  0.05426728
 Iteration  8 RMS(Cart)=  0.00001486 RMS(Int)=  0.05426178
 Iteration  9 RMS(Cart)=  0.00000572 RMS(Int)=  0.05425966
 Iteration 10 RMS(Cart)=  0.00000220 RMS(Int)=  0.05425885
 Iteration 11 RMS(Cart)=  0.00000085 RMS(Int)=  0.05425854
 Iteration  1 RMS(Cart)=  0.01216646 RMS(Int)=  0.04273547
 Iteration  2 RMS(Cart)=  0.01205627 RMS(Int)=  0.03973984
 Iteration  3 RMS(Cart)=  0.01195758 RMS(Int)=  0.04260748
 Iteration  4 RMS(Cart)=  0.01020309 RMS(Int)=  0.04905565
 Iteration  5 RMS(Cart)=  0.00623817 RMS(Int)=  0.05430246
 Iteration  6 RMS(Cart)=  0.00381443 RMS(Int)=  0.05787073
 Iteration  7 RMS(Cart)=  0.00233197 RMS(Int)=  0.06016314
 Iteration  8 RMS(Cart)=  0.00142536 RMS(Int)=  0.06160119
 Iteration  9 RMS(Cart)=  0.00087107 RMS(Int)=  0.06249284
 Iteration 10 RMS(Cart)=  0.00053228 RMS(Int)=  0.06304227
 Iteration 11 RMS(Cart)=  0.00032523 RMS(Int)=  0.06337965
 Iteration 12 RMS(Cart)=  0.00019871 RMS(Int)=  0.06358640
 Iteration 13 RMS(Cart)=  0.00012140 RMS(Int)=  0.06371294
 Iteration 14 RMS(Cart)=  0.00007417 RMS(Int)=  0.06379034
 Iteration 15 RMS(Cart)=  0.00004532 RMS(Int)=  0.06383766
 Iteration 16 RMS(Cart)=  0.00002769 RMS(Int)=  0.06386658
 Iteration 17 RMS(Cart)=  0.00001691 RMS(Int)=  0.06388425
 Iteration 18 RMS(Cart)=  0.00001033 RMS(Int)=  0.06389505
 Iteration 19 RMS(Cart)=  0.00000631 RMS(Int)=  0.06390164
 Iteration 20 RMS(Cart)=  0.00000386 RMS(Int)=  0.06390567
 Iteration 21 RMS(Cart)=  0.00000236 RMS(Int)=  0.06390814
 Iteration 22 RMS(Cart)=  0.00000144 RMS(Int)=  0.06390964
 Iteration 23 RMS(Cart)=  0.00000088 RMS(Int)=  0.06391056
 GradGradGradGradGradGradGradGradGradGradGradGradGradGradGradGradGradGrad

 Leave Link  103 at Fri Mar 29 14:48:28 2019, MaxMem=   671088640 cpu:               1.1 elap:               0.1
 (Enter /shared/centos7/gaussian/g16/l202.exe)
                          Input orientation:                          
 ---------------------------------------------------------------------
 Center     Atomic      Atomic             Coordinates (Angstroms)
 Number     Number       Type             X           Y           Z
 ---------------------------------------------------------------------
      1          8           0        0.710918   -0.632755   -0.319172
      2          6           0       -0.386311    0.008901    0.304351
      3          6           0       -0.665390    1.432469   -0.161802
      4          6           0       -1.607667   -0.825958   -0.025963
      5          6           0        1.969147   -0.147928    0.069588
      6          1           0       -0.428877   -0.062388    1.402399
      7          1           0       -0.781718    1.553068   -1.239992
      8          1           0        0.183593    2.034259    0.159343
      9          1           0       -1.395081    1.913973    0.494012
     10          1           0       -2.494960   -0.415621    0.454793
     11          1           0       -1.466932   -1.852104    0.308706
     12          1           0       -1.767507   -0.833856   -1.104602
     13          1           0        2.171705    0.847372   -0.335710
     14          1           0        2.056659   -0.106002    1.161421
     15          1           0        2.715395   -0.838260   -0.316893
 ---------------------------------------------------------------------
                    Distance matrix (angstroms):
                    1          2          3          4          5
     1  O    0.000000
     2  C    1.415773   0.000000
     3  C    2.486793   1.523722   0.000000
     4  C    2.345023   1.515852   2.450883   0.000000
     5  C    1.403329   2.372318   3.080905   3.641765   0.000000
     6  H    2.142021   1.101183   2.176525   2.003198   2.744853
     7  H    2.802444   2.219413   1.091133   2.795679   3.489362
     8  H    2.760437   2.109003   1.089063   3.379910   2.821028
     9  H    3.403281   2.163999   1.092881   2.796925   3.968577
    10  H    3.305120   2.156212   2.672629   1.089399   4.488684
    11  H    2.573727   2.151999   3.413542   1.088479   3.842920
    12  H    2.607668   2.145481   2.690680   1.090447   3.976406
    13  H    2.079651   2.766977   2.902015   4.144832   1.093580
    14  H    2.068972   2.591500   3.395197   3.918610   1.096136
    15  H    2.014986   3.274784   4.075533   4.332858   1.087572
                    6          7          8          9         10
     6  H    0.000000
     7  H    3.117118   0.000000
     8  H    2.513213   1.766780   0.000000
     9  H    2.380068   1.874363   1.618235   0.000000
    10  H    2.300310   3.111788   3.641956   2.576486   0.000000
    11  H    2.340258   3.803049   4.224969   3.771318   1.772475
    12  H    2.944851   2.586023   3.691942   3.200755   1.770825
    13  H    3.257563   3.168350   2.367777   3.814190   4.898755
    14  H    2.497571   4.071324   3.015502   4.054657   4.616537
    15  H    3.666659   4.335939   3.858522   5.012821   5.284120
                   11         12         13         14         15
    11  H    0.000000
    12  H    1.767658   0.000000
    13  H    4.576257   4.351449   0.000000
    14  H    4.023890   4.504318   1.778640   0.000000
    15  H    4.348691   4.551584   1.771245   1.776387   0.000000
 Stoichiometry    C4H10O
 Framework group  C1[X(C4H10O)]
 Deg. of freedom    39
 Full point group                 C1      NOp   1
 RotChk:  IX=0 Diff= 7.26D-02
 Largest Abelian subgroup         C1      NOp   1
 Largest concise Abelian subgroup C1      NOp   1
                         Standard orientation:                         
 ---------------------------------------------------------------------
 Center     Atomic      Atomic             Coordinates (Angstroms)
 Number     Number       Type             X           Y           Z
 ---------------------------------------------------------------------
      1          8           0        0.732579   -0.592390   -0.318432
      2          6           0       -0.393917   -0.014832    0.315483
      3          6           0       -0.743044    1.400269   -0.128736
      4          6           0       -1.573353   -0.903427   -0.026766
      5          6           0        1.966073   -0.052445    0.076896
      6          1           0       -0.431438   -0.104803    1.412342
      7          1           0       -0.866614    1.531396   -1.204890
      8          1           0        0.075874    2.037994    0.201022
      9          1           0       -1.494553    1.835409    0.534796
     10          1           0       -2.479026   -0.544424    0.460741
     11          1           0       -1.382054   -1.926412    0.292129
     12          1           0       -1.734087   -0.902754   -1.105301
     13          1           0        2.119070    0.957631   -0.313304
     14          1           0        2.052918   -0.022881    1.169187
     15          1           0        2.744719   -0.699421   -0.320530
 ---------------------------------------------------------------------
 Rotational constants (GHZ):           7.7648019           3.7748059           2.8232321
 Leave Link  202 at Fri Mar 29 14:48:28 2019, MaxMem=   671088640 cpu:               0.2 elap:               0.0
 (Enter /shared/centos7/gaussian/g16/l301.exe)
 Standard basis: 6-311+G(2df,2p) (5D, 7F)
 Ernie: Thresh=  0.10000D-02 Tol=  0.10000D-05 Strict=F.
 There are   285 symmetry adapted cartesian basis functions of A   symmetry.
 There are   260 symmetry adapted basis functions of A   symmetry.
   260 basis functions,   370 primitive gaussians,   285 cartesian basis functions
    21 alpha electrons       21 beta electrons
       nuclear repulsion energy       196.8872688670 Hartrees.
 IExCor= 4336 DFT=T Ex+Corr=M062X ExCW=0 ScaHFX=  0.540000
 ScaDFX=  1.000000  1.000000  1.000000  1.000000 ScalE2=  1.000000  1.000000
 IRadAn=      5 IRanWt=     -1 IRanGd=            0 ICorTp=0 IEmpDi=  4
 NAtoms=   15 NActive=   15 NUniq=   15 SFac= 1.00D+00 NAtFMM=   60 NAOKFM=F Big=F
 Integral buffers will be    131072 words long.
 Raffenetti 2 integral format.
 Two-electron integral symmetry is turned on.
 Leave Link  301 at Fri Mar 29 14:48:28 2019, MaxMem=   671088640 cpu:               1.2 elap:               0.1
 (Enter /shared/centos7/gaussian/g16/l302.exe)
 NPDir=0 NMtPBC=     1 NCelOv=     1 NCel=       1 NClECP=     1 NCelD=      1
         NCelK=      1 NCelE2=     1 NClLst=     1 CellRange=     0.0.
 One-electron integrals computed using PRISM.
 One-electron integral symmetry used in STVInt
 NBasis=   260 RedAO= T EigKep=  4.42D-05  NBF=   260
 NBsUse=   260 1.00D-06 EigRej= -1.00D+00 NBFU=   260
 Precomputing XC quadrature grid using
 IXCGrd= 4 IRadAn=           5 IRanWt=          -1 IRanGd=           0 AccXCQ= 0.00D+00.
 Generated NRdTot=       0 NPtTot=           0 NUsed=           0 NTot=          32
 NSgBfM=   285   285   285   285   285 MxSgAt=    15 MxSgA2=    15.
 Leave Link  302 at Fri Mar 29 14:48:29 2019, MaxMem=   671088640 cpu:               9.3 elap:               0.5
 (Enter /shared/centos7/gaussian/g16/l303.exe)
 DipDrv:  MaxL=1.
 Leave Link  303 at Fri Mar 29 14:48:29 2019, MaxMem=   671088640 cpu:               0.8 elap:               0.1
 (Enter /shared/centos7/gaussian/g16/l401.exe)
 Initial guess from the checkpoint file:  "/scratch/underkoffler.c/gaussian_scratch/Gau-18197.chk"
 B after Tr=     0.000000   -0.000000    0.000000
         Rot=    0.999625   -0.003017    0.000545   -0.027226 Ang=  -3.14 deg.
 Guess basis will be translated and rotated to current coordinates.
 JPrj=2 DoOrth=T DoCkMO=T.
 Generating alternative initial guess.
 ExpMin= 4.38D-02 ExpMax= 8.59D+03 ExpMxC= 1.30D+03 IAcc=2 IRadAn=         4 AccDes= 0.00D+00
 Harris functional with IExCor= 1009 and IRadAn=       4 diagonalized for initial guess.
 HarFok:  IExCor= 1009 AccDes= 0.00D+00 IRadAn=         4 IDoV= 1 UseB2=F ITyADJ=14
 ICtDFT=  3500011 ScaDFX=  1.000000  1.000000  1.000000  1.000000
 FoFCou: FMM=F IPFlag=           0 FMFlag=      100000 FMFlg1=           0
         NFxFlg=           0 DoJE=T BraDBF=F KetDBF=T FulRan=T
         wScrn=  0.000000 ICntrl=       500 IOpCl=  0 I1Cent=   200000004 NGrid=           0
         NMat0=    1 NMatS0=      1 NMatT0=    0 NMatD0=    1 NMtDS0=    0 NMtDT0=    0
 Petite list used in FoFCou.
 Harris En= -233.571772029858    
 Leave Link  401 at Fri Mar 29 14:48:30 2019, MaxMem=   671088640 cpu:              21.9 elap:               1.1
 (Enter /shared/centos7/gaussian/g16/l502.exe)
 Integral symmetry usage will be decided dynamically.
 Closed shell SCF:
 Using DIIS extrapolation, IDIIS=  1040.
 NGot=   671088640 LenX=   670917793 LenY=   670836127
 Requested convergence on RMS density matrix=1.00D-08 within 128 cycles.
 Requested convergence on MAX density matrix=1.00D-06.
 Requested convergence on             energy=1.00D-06.
 No special actions if energy rises.
 Fock matrices will be formed incrementally for  20 cycles.

 Cycle   1  Pass 1  IDiag  1:
 FoFJK:  IHMeth= 1 ICntrl=       0 DoSepK=F KAlg= 0 I1Cent=           0 FoldK=F
 IRaf= 980000000 NMat=       1 IRICut=       1 DoRegI=T DoRafI=F ISym2E= 0 IDoP0=0 IntGTp=1.
 FoFCou: FMM=F IPFlag=           0 FMFlag=      100000 FMFlg1=           0
         NFxFlg=           0 DoJE=F BraDBF=F KetDBF=F FulRan=T
         wScrn=  0.000000 ICntrl=         0 IOpCl=  0 I1Cent=           0 NGrid=           0
         NMat0=    1 NMatS0=      1 NMatT0=    0 NMatD0=    1 NMtDS0=    0 NMtDT0=    0
 Symmetry not used in FoFCou.
 E= -233.604084530307    
 DIIS: error= 3.51D-03 at cycle   1 NSaved=   1.
 NSaved= 1 IEnMin= 1 EnMin= -233.604084530307     IErMin= 1 ErrMin= 3.51D-03
 ErrMax= 3.51D-03  0.00D+00 EMaxC= 1.00D-01 BMatC= 7.15D-03 BMatP= 7.15D-03
 IDIUse=3 WtCom= 9.65D-01 WtEn= 3.51D-02
 Coeff-Com:  0.100D+01
 Coeff-En:   0.100D+01
 Coeff:      0.100D+01
 Gap=     0.623 Goal=   None    Shift=    0.000
 GapD=    0.623 DampG=2.000 DampE=1.000 DampFc=2.0000 IDamp=-1.
 RMSDP=5.45D-04 MaxDP=1.75D-02              OVMax= 2.19D-02

 Cycle   2  Pass 1  IDiag  1:
 RMSU=  5.43D-04    CP:  9.96D-01
 E= -233.611647607556     Delta-E=       -0.007563077248 Rises=F Damp=F
 DIIS: error= 8.21D-04 at cycle   2 NSaved=   2.
 NSaved= 2 IEnMin= 2 EnMin= -233.611647607556     IErMin= 2 ErrMin= 8.21D-04
 ErrMax= 8.21D-04  0.00D+00 EMaxC= 1.00D-01 BMatC= 1.68D-04 BMatP= 7.15D-03
 IDIUse=3 WtCom= 9.92D-01 WtEn= 8.21D-03
 Coeff-Com: -0.627D-01 0.106D+01
 Coeff-En:   0.000D+00 0.100D+01
 Coeff:     -0.622D-01 0.106D+01
 Gap=     0.350 Goal=   None    Shift=    0.000
 RMSDP=9.78D-05 MaxDP=2.30D-03 DE=-7.56D-03 OVMax= 5.73D-03

 Cycle   3  Pass 1  IDiag  1:
 RMSU=  8.16D-05    CP:  9.96D-01  1.10D+00
 E= -233.611904720929     Delta-E=       -0.000257113374 Rises=F Damp=F
 DIIS: error= 4.50D-04 at cycle   3 NSaved=   3.
 NSaved= 3 IEnMin= 3 EnMin= -233.611904720929     IErMin= 3 ErrMin= 4.50D-04
 ErrMax= 4.50D-04  0.00D+00 EMaxC= 1.00D-01 BMatC= 3.88D-05 BMatP= 1.68D-04
 IDIUse=3 WtCom= 9.96D-01 WtEn= 4.50D-03
 Coeff-Com: -0.365D-01 0.321D+00 0.716D+00
 Coeff-En:   0.000D+00 0.000D+00 0.100D+01
 Coeff:     -0.363D-01 0.319D+00 0.717D+00
 Gap=     0.347 Goal=   None    Shift=    0.000
 RMSDP=2.56D-05 MaxDP=9.07D-04 DE=-2.57D-04 OVMax= 1.66D-03

 Cycle   4  Pass 1  IDiag  1:
 RMSU=  2.35D-05    CP:  9.96D-01  1.11D+00  9.25D-01
 E= -233.611940704495     Delta-E=       -0.000035983566 Rises=F Damp=F
 DIIS: error= 1.64D-04 at cycle   4 NSaved=   4.
 NSaved= 4 IEnMin= 4 EnMin= -233.611940704495     IErMin= 4 ErrMin= 1.64D-04
 ErrMax= 1.64D-04  0.00D+00 EMaxC= 1.00D-01 BMatC= 5.55D-06 BMatP= 3.88D-05
 IDIUse=3 WtCom= 9.98D-01 WtEn= 1.64D-03
 Coeff-Com: -0.808D-02 0.219D-01 0.263D+00 0.723D+00
 Coeff-En:   0.000D+00 0.000D+00 0.000D+00 0.100D+01
 Coeff:     -0.807D-02 0.219D-01 0.263D+00 0.723D+00
 Gap=     0.348 Goal=   None    Shift=    0.000
 RMSDP=9.67D-06 MaxDP=4.23D-04 DE=-3.60D-05 OVMax= 6.61D-04

 Cycle   5  Pass 1  IDiag  1:
 RMSU=  7.07D-06    CP:  9.96D-01  1.12D+00  1.00D+00  9.46D-01
 E= -233.611945560438     Delta-E=       -0.000004855943 Rises=F Damp=F
 DIIS: error= 4.88D-05 at cycle   5 NSaved=   5.
 NSaved= 5 IEnMin= 5 EnMin= -233.611945560438     IErMin= 5 ErrMin= 4.88D-05
 ErrMax= 4.88D-05  0.00D+00 EMaxC= 1.00D-01 BMatC= 7.83D-07 BMatP= 5.55D-06
 IDIUse=1 WtCom= 1.00D+00 WtEn= 0.00D+00
 Coeff-Com:  0.116D-02-0.323D-01 0.235D-01 0.307D+00 0.701D+00
 Coeff:      0.116D-02-0.323D-01 0.235D-01 0.307D+00 0.701D+00
 Gap=     0.348 Goal=   None    Shift=    0.000
 RMSDP=3.40D-06 MaxDP=1.45D-04 DE=-4.86D-06 OVMax= 2.14D-04

[...]
           D1          73.66702  65.45054  66.87939
           D2        -163.59630-172.07685-170.84978
           D3         -46.70916 -54.05794 -53.38305
           D4         -61.01299 -66.49402 -71.78033
           D5          60.33061  55.03146  50.08303
           D6         179.54879 174.13063 169.01550
           D7          -2.64533  30.77866  56.32635
           D8        -123.07459 -89.59222 -64.41468
           D9         116.08522 147.58261 175.70041
           D10       -122.17428 -88.26990 -62.86926
           D11        117.39647 151.35922 176.38971
           D12         -3.44372  28.53405  56.50481
           D13        116.84321 148.77000 176.20011
           D14         -3.58605  28.39912  55.45908
           D15       -124.42624 -94.42605 -64.42582
           D16        178.99939 174.92945 177.07962
           D17         58.17478  54.19080  56.41200
           D18        -61.57290 -65.31590 -63.03050
           D19        -58.47145 -63.18456 -60.42343
           D20       -179.29606 176.07680 178.90894
           D21         60.95626  56.57010  59.46644
           D22         62.79368  59.23681  60.29699
           D23        -58.03093 -61.50184 -60.37063
           D24       -177.77860 178.99146-179.81313
 Largest change from initial coordinates is atom   15       0.000 Angstoms.
 GradGradGradGradGradGradGradGradGradGradGradGradGradGradGradGradGradGrad

 Leave Link  103 at Fri Mar 29 15:47:05 2019, MaxMem=   671088640 cpu:               0.7 elap:               0.1
 (Enter /shared/centos7/gaussian/g16/l202.exe)
                          Input orientation:                          
 ---------------------------------------------------------------------
 Center     Atomic      Atomic             Coordinates (Angstroms)
 Number     Number       Type             X           Y           Z
 ---------------------------------------------------------------------
      1          8           0        0.860814   -0.501607   -0.045299
      2          6           0       -0.474803   -0.076452    0.154055
      3          6           0       -0.659075    1.399964   -0.172325
      4          6           0       -1.339183   -0.956525   -0.726896
      5          6           0        1.791940    0.063400    0.839600
      6          1           0       -0.737821   -0.245514    1.208075
      7          1           0       -0.336882    1.592379   -1.196673
      8          1           0       -0.089117    2.041415    0.498282
      9          1           0       -1.709641    1.675133   -0.081737
     10          1           0       -2.393787   -0.721409   -0.588117
     11          1           0       -1.176864   -2.006213   -0.489274
     12          1           0       -1.080958   -0.796070   -1.774047
     13          1           0        1.974136    1.120717    0.628044
     14          1           0        1.458527   -0.033394    1.879295
     15          1           0        2.725686   -0.480656    0.717494
 ---------------------------------------------------------------------
                    Distance matrix (angstroms):
                    1          2          3          4          5
     1  O    0.000000
     2  C    1.415759   0.000000
     3  C    2.437657   1.523247   0.000000
     4  C    2.347661   1.515835   2.514584   0.000000
     5  C    1.403308   2.372267   2.969490   3.646654   0.000000
     6  H    2.047478   1.099418   2.149256   2.147390   2.575051
     7  H    2.672998   2.151391   1.090926   2.778886   3.319046
     8  H    2.768540   2.180047   1.089049   3.471508   2.750894
     9  H    3.368496   2.156032   1.089776   2.734793   3.963283
    10  H    3.306870   2.156220   2.771701   1.089371   4.491615
    11  H    2.571592   2.151916   3.459856   1.088420   3.855256
    12  H    2.616439   2.145425   2.750647   1.090390   3.977861
    13  H    2.079618   2.766799   2.766291   4.138704   1.093558
    14  H    2.068948   2.591538   3.278399   3.933393   1.096129
    15  H    2.014953   3.274748   3.973049   4.340031   1.087561
                    6          7          8          9         10
     6  H    0.000000
     7  H    3.053099   0.000000
     8  H    2.480860   1.770845   0.000000
     9  H    2.509369   1.770423   1.759739   0.000000
    10  H    2.488976   3.155125   3.758319   2.543205   0.000000
    11  H    2.484716   3.762426   4.306014   3.741958   1.772398
    12  H    3.051869   2.567431   3.768096   3.060393   1.770741
    13  H    3.091558   2.982090   2.263081   3.792278   4.893998
    14  H    2.306398   3.915126   2.933808   4.099024   4.626208
    15  H    3.505972   4.164232   3.785765   4.995830   5.288816
                   11         12         13         14         15
    11  H    0.000000
    12  H    1.767565   0.000000
    13  H    4.577651   4.333325   0.000000
    14  H    4.055542   4.514151   1.778610   0.000000
    15  H    4.360448   4.560460   1.771221   1.776378   0.000000
 Stoichiometry    C4H10O
 Framework group  C1[X(C4H10O)]
 Deg. of freedom    39
 Full point group                 C1      NOp   1
 RotChk:  IX=0 Diff= 1.20D-15
 Largest Abelian subgroup         C1      NOp   1
 Largest concise Abelian subgroup C1      NOp   1
                         Standard orientation:                         
 ---------------------------------------------------------------------
 Center     Atomic      Atomic             Coordinates (Angstroms)
 Number     Number       Type             X           Y           Z
 ---------------------------------------------------------------------
      1          8           0        0.679196   -0.632846   -0.308893
      2          6           0       -0.421824   -0.009692    0.326565
      3          6           0       -0.582200    1.442890   -0.103048
      4          6           0       -1.642592   -0.835900   -0.026792
      5          6           0        1.933162   -0.126305    0.065618
      6          1           0       -0.259556   -0.045650    1.413347
      7          1           0       -0.676484    1.496286   -1.188579
      8          1           0        0.264043    2.055994    0.203552
      9          1           0       -1.480023    1.868703    0.344400
     10          1           0       -2.528710   -0.444722    0.471708
     11          1           0       -1.497769   -1.872507    0.271753
     12          1           0       -1.807313   -0.807150   -1.104285
     13          1           0        2.114000    0.872161   -0.342098
     14          1           0        2.032188   -0.082464    1.156385
     15          1           0        2.686779   -0.803840   -0.329093
 ---------------------------------------------------------------------
 Rotational constants (GHZ):           7.7293321           3.8506211           2.8503304
 Leave Link  202 at Fri Mar 29 15:47:05 2019, MaxMem=   671088640 cpu:               0.2 elap:               0.0
 (Enter /shared/centos7/gaussian/g16/l601.exe)
 Copying SCF densities to generalized density rwf, IOpCl= 0 IROHF=0.

 **********************************************************************

            Population analysis using the SCF density.

 **********************************************************************

 Orbital symmetries:
       Occupied  (A) (A) (A) (A) (A) (A) (A) (A) (A) (A) (A) (A)
                 (A) (A) (A) (A) (A) (A) (A) (A) (A)
       Virtual   (A) (A) (A) (A) (A) (A) (A) (A) (A) (A) (A) (A)
                 (A) (A) (A) (A) (A) (A) (A) (A) (A) (A) (A) (A)
                 (A) (A) (A) (A) (A) (A) (A) (A) (A) (A) (A) (A)
                 (A) (A) (A) (A) (A) (A) (A) (A) (A) (A) (A) (A)
                 (A) (A) (A) (A) (A) (A) (A) (A) (A) (A) (A) (A)
                 (A) (A) (A) (A) (A) (A) (A) (A) (A) (A) (A) (A)
                 (A) (A) (A) (A) (A) (A) (A) (A) (A) (A) (A) (A)
                 (A) (A) (A) (A) (A) (A) (A) (A) (A) (A) (A) (A)
                 (A) (A) (A) (A) (A) (A) (A) (A) (A) (A) (A) (A)
                 (A) (A) (A) (A) (A) (A) (A) (A) (A) (A) (A) (A)
                 (A) (A) (A) (A) (A) (A) (A) (A) (A) (A) (A) (A)
                 (A) (A) (A) (A) (A) (A) (A) (A) (A) (A) (A) (A)
                 (A) (A) (A) (A) (A) (A) (A) (A) (A) (A) (A) (A)
                 (A) (A) (A) (A) (A) (A) (A) (A) (A) (A) (A) (A)
                 (A) (A) (A) (A) (A) (A) (A) (A) (A) (A) (A) (A)
                 (A) (A) (A) (A) (A) (A) (A) (A) (A) (A) (A) (A)
                 (A) (A) (A) (A) (A) (A) (A) (A) (A) (A) (A) (A)
                 (A) (A) (A) (A) (A) (A) (A) (A) (A) (A) (A) (A)
                 (A) (A) (A) (A) (A) (A) (A) (A) (A) (A) (A) (A)
                 (A) (A) (A) (A) (A) (A) (A) (A) (A) (A) (A)
 The electronic state is 1-A.
 Alpha  occ. eigenvalues --  -19.61883 -10.58475 -10.57200 -10.52259 -10.51896
 Alpha  occ. eigenvalues --   -1.15676  -0.88285  -0.78896  -0.76366  -0.66215
 Alpha  occ. eigenvalues --   -0.57209  -0.53943  -0.53432  -0.49720  -0.46117
 Alpha  occ. eigenvalues --   -0.45467  -0.44151  -0.41440  -0.40885  -0.37592
 Alpha  occ. eigenvalues --   -0.32739
 Alpha virt. eigenvalues --    0.01674   0.03002   0.03482   0.03958   0.05590
 Alpha virt. eigenvalues --    0.06606   0.06978   0.07604   0.07801   0.09522
 Alpha virt. eigenvalues --    0.10167   0.11183   0.12179   0.13180   0.13689
 Alpha virt. eigenvalues --    0.15495   0.18059   0.19590   0.21181   0.21799
 Alpha virt. eigenvalues --    0.22748   0.24522   0.25189   0.25611   0.26142
 Alpha virt. eigenvalues --    0.27208   0.27494   0.28554   0.29742   0.30457
 Alpha virt. eigenvalues --    0.31497   0.34302   0.36530   0.38603   0.40325
 Alpha virt. eigenvalues --    0.42698   0.44725   0.45122   0.49521   0.50393
 Alpha virt. eigenvalues --    0.51029   0.53032   0.53966   0.55596   0.56470
 Alpha virt. eigenvalues --    0.56653   0.57808   0.58919   0.59430   0.60702
 Alpha virt. eigenvalues --    0.62105   0.62340   0.63762   0.65734   0.67909
 Alpha virt. eigenvalues --    0.70259   0.70731   0.71810   0.74084   0.77105
 Alpha virt. eigenvalues --    0.80324   0.83182   0.86117   0.88974   0.89523
 Alpha virt. eigenvalues --    0.91547   0.95860   0.97286   0.98251   1.00251
 Alpha virt. eigenvalues --    1.03923   1.05489   1.07280   1.08073   1.10300
 Alpha virt. eigenvalues --    1.12261   1.13266   1.13962   1.17018   1.17334
 Alpha virt. eigenvalues --    1.19517   1.20950   1.22055   1.22935   1.24825
 Alpha virt. eigenvalues --    1.26198   1.29899   1.30118   1.31129   1.32787
 Alpha virt. eigenvalues --    1.34587   1.35538   1.37579   1.38873   1.39768
 Alpha virt. eigenvalues --    1.40991   1.42284   1.44589   1.46575   1.48092
 Alpha virt. eigenvalues --    1.49167   1.50857   1.52244   1.54200   1.56809
 Alpha virt. eigenvalues --    1.58778   1.61194   1.61957   1.62065   1.65839
 Alpha virt. eigenvalues --    1.68457   1.69545   1.75906   1.86402   2.05521
 Alpha virt. eigenvalues --    2.11576   2.11950   2.25240   2.37489   2.39953
 Alpha virt. eigenvalues --    2.41320   2.47893   2.54511   2.55483   2.59988
 Alpha virt. eigenvalues --    2.62467   2.66044   2.70916   2.73033   2.77721
 Alpha virt. eigenvalues --    2.82581   2.88755   2.90939   2.96093   2.97497
 Alpha virt. eigenvalues --    2.99081   3.00503   3.03309   3.04181   3.08560
 Alpha virt. eigenvalues --    3.10466   3.12981   3.13822   3.14917   3.17389
 Alpha virt. eigenvalues --    3.19664   3.21578   3.23712   3.26868   3.29918
 Alpha virt. eigenvalues --    3.31939   3.34531   3.36982   3.38021   3.38872
 Alpha virt. eigenvalues --    3.42364   3.43859   3.46724   3.49790   3.52628
 Alpha virt. eigenvalues --    3.54031   3.56855   3.58315   3.61677   3.61868
 Alpha virt. eigenvalues --    3.64906   3.70964   3.72526   3.75797   3.78025
 Alpha virt. eigenvalues --    3.81275   3.81893   3.85062   3.87706   3.90014
 Alpha virt. eigenvalues --    3.93307   3.95441   3.99092   4.00966   4.02055
 Alpha virt. eigenvalues --    4.03630   4.07812   4.08119   4.12913   4.17610
 Alpha virt. eigenvalues --    4.18803   4.19756   4.20853   4.21748   4.23376
 Alpha virt. eigenvalues --    4.25056   4.26528   4.29136   4.30332   4.32841
 Alpha virt. eigenvalues --    4.35567   4.37055   4.39592   4.44858   4.49941
 Alpha virt. eigenvalues --    4.50736   4.51517   4.55450   4.57054   4.60059
 Alpha virt. eigenvalues --    4.61395   4.65458   4.72879   4.82902   4.94127
 Alpha virt. eigenvalues --    5.19291   5.27585   5.29844   5.33804   5.41938
 Alpha virt. eigenvalues --    5.48183   5.53713   5.56229   5.59054   5.61026
 Alpha virt. eigenvalues --    5.61592   5.64337   5.66914   5.69679   5.84078
 Alpha virt. eigenvalues --    5.91625   6.23274   6.50648   6.73828   7.21134
 Alpha virt. eigenvalues --    7.23073   7.36743   7.73314   7.78548  24.33085
 Alpha virt. eigenvalues --   24.41833  24.45379  24.51790  50.20677
          Condensed to atoms (all electrons):
               1          2          3          4          5          6
     1  O    8.244189   0.230923  -0.128501  -0.128103   0.110732  -0.043095
     2  C    0.230923   5.313864   0.172565   0.320951  -0.107374   0.467079
     3  C   -0.128501   0.172565   5.283876  -0.123928   0.015712  -0.066256
     4  C   -0.128103   0.320951  -0.123928   5.180318  -0.020017  -0.023953
     5  C    0.110732  -0.107374   0.015712  -0.020017   4.986493  -0.010208
     6  H   -0.043095   0.467079  -0.066256  -0.023953  -0.010208   0.520569
     7  H   -0.003714  -0.033537   0.430095  -0.014525  -0.004048   0.005833
     8  H   -0.008183  -0.016713   0.391992   0.008600   0.005211  -0.007412
     9  H    0.009666  -0.043919   0.420023  -0.001343  -0.000983  -0.002256
    10  H    0.013621  -0.047502  -0.009860   0.430030   0.001573  -0.006478
    11  H   -0.005106  -0.028356   0.020011   0.397393  -0.001192  -0.006369
    12  H   -0.010589  -0.006443  -0.016187   0.398733  -0.000692   0.005989
    13  H   -0.051542  -0.003661   0.000478  -0.007806   0.447654  -0.001665
    14  H   -0.044505   0.000654  -0.001649   0.002203   0.421461   0.006208
    15  H   -0.059216   0.010964   0.000168   0.002645   0.429887   0.000201
               7          8          9         10         11         12
     1  O   -0.003714  -0.008183   0.009666   0.013621  -0.005106  -0.010589
     2  C   -0.033537  -0.016713  -0.043919  -0.047502  -0.028356  -0.006443
     3  C    0.430095   0.391992   0.420023  -0.009860   0.020011  -0.016187
     4  C   -0.014525   0.008600  -0.001343   0.430030   0.397393   0.398733
     5  C   -0.004048   0.005211  -0.000983   0.001573  -0.001192  -0.000692
     6  H    0.005833  -0.007412  -0.002256  -0.006478  -0.006369   0.005989
     7  H    0.504079  -0.028744  -0.028482   0.000258  -0.000186   0.002088
     8  H   -0.028744   0.545835  -0.024580   0.000203  -0.000285  -0.000005
     9  H   -0.028482  -0.024580   0.528922   0.000463   0.000124  -0.000536
    10  H    0.000258   0.000203   0.000463   0.532518  -0.022559  -0.032236
    11  H   -0.000186  -0.000285   0.000124  -0.022559   0.521620  -0.025439
    12  H    0.002088  -0.000005  -0.000536  -0.032236  -0.025439   0.526909
    13  H   -0.000083  -0.003339  -0.000154   0.000019   0.000015  -0.000027
    14  H    0.000270  -0.001213   0.000039  -0.000006   0.000019  -0.000001
    15  H   -0.000147   0.000396   0.000045   0.000015  -0.000038   0.000025
              13         14         15
     1  O   -0.051542  -0.044505  -0.059216
     2  C   -0.003661   0.000654   0.010964
     3  C    0.000478  -0.001649   0.000168
     4  C   -0.007806   0.002203   0.002645
     5  C    0.447654   0.421461   0.429887
     6  H   -0.001665   0.006208   0.000201
     7  H   -0.000083   0.000270  -0.000147
     8  H   -0.003339  -0.001213   0.000396
     9  H   -0.000154   0.000039   0.000045
    10  H    0.000019  -0.000006   0.000015
    11  H    0.000015   0.000019  -0.000038
    12  H   -0.000027  -0.000001   0.000025
    13  H    0.575433  -0.052822  -0.028045
    14  H   -0.052822   0.575324  -0.021823
    15  H   -0.028045  -0.021823   0.528861
 Mulliken charges:
               1
     1  O   -0.126577
     2  C   -0.229495
     3  C   -0.388536
     4  C   -0.421199
     5  C   -0.274209
     6  H    0.161814
     7  H    0.170842
     8  H    0.138239
     9  H    0.142972
    10  H    0.139941
    11  H    0.150348
    12  H    0.158411
    13  H    0.125545
    14  H    0.115842
    15  H    0.136062
 Sum of Mulliken charges =  -0.00000
 Mulliken charges with hydrogens summed into heavy atoms:
               1
     1  O   -0.126577
     2  C   -0.067681
     3  C    0.063517
     4  C    0.027501
     5  C    0.103240
 Electronic spatial extent (au):  <R**2>=            501.4194
 Charge=             -0.0000 electrons
 Dipole moment (field-independent basis, Debye):
    X=              0.0422    Y=              0.9839    Z=              0.8432  Tot=              1.2965
 Quadrupole moment (field-independent basis, Debye-Ang):
   XX=            -30.8133   YY=            -34.5546   ZZ=            -33.7825
   XY=              0.3859   XZ=              0.2440   YZ=             -0.6262
 Traceless Quadrupole moment (field-independent basis, Debye-Ang):
   XX=              2.2368   YY=             -1.5045   ZZ=             -0.7324
   XY=              0.3859   XZ=              0.2440   YZ=             -0.6262
 Octapole moment (field-independent basis, Debye-Ang**2):
  XXX=              8.8254  YYY=             -2.7356  ZZZ=             -1.0567  XYY=              1.0515
  XXY=             -1.3276  XXZ=             -0.1280  XZZ=              0.4217  YZZ=             -0.5084
  YYZ=              0.2675  XYZ=             -0.4100
 Hexadecapole moment (field-independent basis, Debye-Ang**3):
 XXXX=           -394.8622 YYYY=           -212.1434 ZZZZ=            -71.9195 XXXY=            -10.1525
 XXXZ=             -6.9447 YYYX=              0.7962 YYYZ=              0.2002 ZZZX=              2.1023
 ZZZY=             -0.6005 XXYY=           -101.0856 XXZZ=            -79.5322 YYZZ=            -48.3547
 XXYZ=              2.5318 YYXZ=             -1.9107 ZZXY=             -0.8633
 N-N= 1.974096335896D+02 E-N=-9.390864561715D+02  KE= 2.326910675608D+02
 No NMR shielding tensors so no spin-rotation constants.
 Leave Link  601 at Fri Mar 29 15:47:06 2019, MaxMem=   671088640 cpu:               5.9 elap:               0.3
 (Enter /shared/centos7/gaussian/g16/l9999.exe)
 1\1\GINC-C0038\Scan\RM062X\6-311+G(2df,2p)\C4H10O1\UNDERKOFFLER.C\29-M
 ar-2019\0\\#p m062x/6-311+g(2df,2p) Opt=(CalcFC,ModRedun)\\Gaussian In
 put Prepared from Scan Object\\0,1\O,0.8608144903,-0.5016072934,-0.045
 2989339\C,-0.4748028664,-0.0764516851,0.1540548653\C,-0.6590749278,1.3
 999637543,-0.1723253985\C,-1.3391826712,-0.9565245866,-0.7268959266\C,
 1.7919396684,0.0634000866,0.8396001992\H,-0.7378209181,-0.2455137806,1
 .208075001\H,-0.3368819802,1.5923792252,-1.1966726505\H,-0.0891170998,
 2.0414153754,0.4982823066\H,-1.7096405227,1.675133477,-0.0817368942\H,
 -2.393786545,-0.7214086599,-0.5881166328\H,-1.1768639,-2.0062130658,-0
 .4892739344\H,-1.0809575234,-0.7960702217,-1.7740466385\H,1.9741355673
 ,1.1207166219,0.6280443791\H,1.458526598,-0.0333939199,1.8792952462\H,
 2.7256856306,-0.4806563269,0.7174940122\\Version=EM64L-G16RevA.03\Stat
 e=1-A\HF=-233.6252115,-233.6233289,-233.6207275,-233.6230869,-233.6252
 114,-233.6233386,-233.6207329,-233.6230227,-233.6252106,-233.6233299,-
 233.6207206,-233.6231872,-233.6252115\RMSD=5.665e-09,7.463e-09,3.822e-
 09,5.164e-09,6.194e-09,6.542e-09,8.502e-09,5.041e-09,6.395e-09,5.158e-
 09,4.797e-09,9.968e-09,5.948e-09\PG=C01 [X(C4H10O1)]\\@


 ALMOST ANYTHING IS EASIER TO GET INTO THAN OUT OF.

                         -- AGNES ALLEN'S LAW FROM
                PAUL DICKSON'S "THE OFFICIAL RULES"
 Job cpu time:       0 days 21 hours 25 minutes 45.2 seconds.
 Elapsed time:       0 days  1 hours  4 minutes 45.1 seconds.
 File lengths (MBytes):  RWF=   1328 Int=      0 D2E=      0 Chk=     32 Scr=     32
 Normal termination of Gaussian 16 at Fri Mar 29 15:47:06 2019.
