 Entering Gaussian System, Link 0=g16
 Input=RMGHERXMTMUMMV-UHFFFAOYSA-N_GeoFreq_c1_a1.com
 Output=RMGHERXMTMUMMV-UHFFFAOYSA-N_GeoFreq_c1_a1.log
 Initial command:
 /shared/centos7/gaussian/g16/l1.exe "/scratch/underkoffler.c/gaussian_scratch/Gau-16231.inp" -scrdir="/scratch/underkoffler.c/gaussian_scratch/"
 Entering Link 1 = /shared/centos7/gaussian/g16/l1.exe PID=     16236.
  
 Copyright (c) 1988,1990,1992,1993,1995,1998,2003,2009,2016,
            Gaussian, Inc.  All Rights Reserved.
  
 This is part of the Gaussian(R) 16 program.  It is based on
 the Gaussian(R) 09 system (copyright 2009, Gaussian, Inc.),
 the Gaussian(R) 03 system (copyright 2003, Gaussian, Inc.),
 the Gaussian(R) 98 system (copyright 1998, Gaussian, Inc.),
 the Gaussian(R) 94 system (copyright 1995, Gaussian, Inc.),
 the Gaussian 92(TM) system (copyright 1992, Gaussian, Inc.),
 the Gaussian 90(TM) system (copyright 1990, Gaussian, Inc.),
 the Gaussian 88(TM) system (copyright 1988, Gaussian, Inc.),
 the Gaussian 86(TM) system (copyright 1986, Carnegie Mellon
 University), and the Gaussian 82(TM) system (copyright 1983,
 Carnegie Mellon University). Gaussian is a federally registered
 trademark of Gaussian, Inc.
  
 This software contains proprietary and confidential information,
 including trade secrets, belonging to Gaussian, Inc.
  
 This software is provided under written license and may be
 used, copied, transmitted, or stored only in accord with that
 written license.
  
 The following legend is applicable only to US Government
 contracts under FAR:
  
                    RESTRICTED RIGHTS LEGEND
  
 Use, reproduction and disclosure by the US Government is
 subject to restrictions as set forth in subparagraphs (a)
 and (c) of the Commercial Computer Software - Restricted
 Rights clause in FAR 52.227-19.
  
 Gaussian, Inc.
 340 Quinnipiac St., Bldg. 40, Wallingford CT 06492
  
  
 ---------------------------------------------------------------
 Warning -- This program may not be used in any manner that
 competes with the business of Gaussian, Inc. or will provide
 assistance to any competitor of Gaussian, Inc.  The licensee
 of this program is prohibited from giving any competitor of
 Gaussian, Inc. access to this program.  By using this program,
 the user acknowledges that Gaussian, Inc. is engaged in the
 business of creating and licensing software in the field of
 computational chemistry and represents and warrants to the
 licensee that it is not a competitor of Gaussian, Inc. and that
 it will not use this program in any manner prohibited above.
 ---------------------------------------------------------------
  

 Cite this work as:
 Gaussian 16, Revision A.03,
 M. J. Frisch, G. W. Trucks, H. B. Schlegel, G. E. Scuseria, 
 M. A. Robb, J. R. Cheeseman, G. Scalmani, V. Barone, 
 G. A. Petersson, H. Nakatsuji, X. Li, M. Caricato, A. V. Marenich, 
 J. Bloino, B. G. Janesko, R. Gomperts, B. Mennucci, H. P. Hratchian, 
 J. V. Ortiz, A. F. Izmaylov, J. L. Sonnenberg, D. Williams-Young, 
 F. Ding, F. Lipparini, F. Egidi, J. Goings, B. Peng, A. Petrone, 
 T. Henderson, D. Ranasinghe, V. G. Zakrzewski, J. Gao, N. Rega, 
 G. Zheng, W. Liang, M. Hada, M. Ehara, K. Toyota, R. Fukuda, 
 J. Hasegawa, M. Ishida, T. Nakajima, Y. Honda, O. Kitao, H. Nakai, 
 T. Vreven, K. Throssell, J. A. Montgomery, Jr., J. E. Peralta, 
 F. Ogliaro, M. J. Bearpark, J. J. Heyd, E. N. Brothers, K. N. Kudin, 
 V. N. Staroverov, T. A. Keith, R. Kobayashi, J. Normand, 
 K. Raghavachari, A. P. Rendell, J. C. Burant, S. S. Iyengar, 
 J. Tomasi, M. Cossi, J. M. Millam, M. Klene, C. Adamo, R. Cammi, 
 J. W. Ochterski, R. L. Martin, K. Morokuma, O. Farkas, 
 J. B. Foresman, and D. J. Fox, Gaussian, Inc., Wallingford CT, 2016.
 
 ******************************************
 Gaussian 16:  EM64L-G16RevA.03 25-Dec-2016
                 9-Apr-2019 
 ******************************************
 %nprocshared=20
 Will use up to   20 processors via shared memory.
 %mem=5GB
 ----------------------------------------------------------------------
 #p m062x/6-311+g(2df,2p) opt=(calcfc,verytight,gdiis,maxcycles=900) fr
 eq iop(7/33=1,2/16=3)
 ----------------------------------------------------------------------

 Warning!  Use of Opt=GDIIS is deprecated since it is seldom a good choice.

 1/6=900,7=1,10=4,18=20,19=11,26=3,38=1/1,3;
 2/9=110,12=2,16=3,17=6,18=5,40=1/2;
 3/5=4,6=6,7=214,11=2,25=1,30=1,71=2,74=-55,140=1/1,2,3;
 4//1;
 5/5=2,38=5/2;
 8/6=4,10=90,11=11/1;
 11/6=1,8=1,9=11,15=111,16=1/1,2,10;
 10/6=1,13=1/2;
 6/7=2,8=2,9=2,10=2,28=1/1;
 7/10=1,18=20,25=1,33=1/1,2,3,16;
 1/6=900,7=1,10=4,18=20,19=11,26=3/3(2);
 2/9=110,16=3/2;
 99//99;
 2/9=110,16=3/2;
 3/5=4,6=6,7=214,11=2,25=1,30=1,71=1,74=-55/1,2,3;
 4/5=5,16=3,69=1/1;
 5/5=2,38=5/2;
 7/33=1/1,2,3,16;
 1/6=900,7=1,18=20,19=11,26=3/3(-5);
 2/9=110,16=3/2;
 6/7=2,8=2,9=2,10=2,19=2,28=1/1;
 99/9=1/99;
 Leave Link    1 at Tue Apr  9 01:36:37 2019, MaxMem=   671088640 cpu:              28.7 elap:               1.5
 (Enter /shared/centos7/gaussian/g16/l101.exe)
 ------------------------------
 Gaussian input prepared by ASE
 ------------------------------
 Symbolic Z-matrix:
 Charge =  0 Multiplicity = 1
 O                     0.74716   0.25118  -0.67742 
 C                    -0.20805  -0.00033   0.29036 
 C                    -0.80616  -1.37386   0.15675 
 C                     0.30575   0.25621   1.69355 
 C                     1.85595  -0.60239  -0.56501 
 H                    -1.00673   0.7286    0.09638 
 H                    -1.50183  -1.59688   1.00202 
 H                    -1.36688  -1.46346  -0.78102 
 H                    -0.00865  -2.14453   0.15744 
 H                    -0.50643   0.16986   2.42421 
 H                     1.10165  -0.47456   1.98137 
 H                     0.73417   1.26575   1.7686 
 H                     1.52871  -1.66074  -0.47475 
 H                     2.46525  -0.35087   0.31675 
 H                     2.46935  -0.48462  -1.47053 
 
 ITRead=  0  0  0  0  0  0  0  0  0  0  0  0  0  0  0
 MicOpt= -1 -1 -1 -1 -1 -1 -1 -1 -1 -1 -1 -1 -1 -1 -1
 NAtoms=     15 NQM=       15 NQMF=       0 NMMI=      0 NMMIF=      0
                NMic=       0 NMicF=      0.
                    Isotopes and Nuclear Properties:
 (Nuclear quadrupole moments (NQMom) in fm**2, nuclear magnetic moments (NMagM)
  in nuclear magnetons)

  Atom         1           2           3           4           5           6           7           8           9          10
 IAtWgt=          16          12          12          12          12           1           1           1           1           1
 AtmWgt=  15.9949146  12.0000000  12.0000000  12.0000000  12.0000000   1.0078250   1.0078250   1.0078250   1.0078250   1.0078250
 NucSpn=           0           0           0           0           0           1           1           1           1           1
 AtZEff=  -0.0000000  -0.0000000  -0.0000000  -0.0000000  -0.0000000  -0.0000000  -0.0000000  -0.0000000  -0.0000000  -0.0000000
 NQMom=    0.0000000   0.0000000   0.0000000   0.0000000   0.0000000   0.0000000   0.0000000   0.0000000   0.0000000   0.0000000
 NMagM=    0.0000000   0.0000000   0.0000000   0.0000000   0.0000000   2.7928460   2.7928460   2.7928460   2.7928460   2.7928460
 AtZNuc=   8.0000000   6.0000000   6.0000000   6.0000000   6.0000000   1.0000000   1.0000000   1.0000000   1.0000000   1.0000000

  Atom        11          12          13          14          15
 IAtWgt=           1           1           1           1           1
 AtmWgt=   1.0078250   1.0078250   1.0078250   1.0078250   1.0078250
 NucSpn=           1           1           1           1           1
 AtZEff=  -0.0000000  -0.0000000  -0.0000000  -0.0000000  -0.0000000
 NQMom=    0.0000000   0.0000000   0.0000000   0.0000000   0.0000000
 NMagM=    2.7928460   2.7928460   2.7928460   2.7928460   2.7928460
 AtZNuc=   1.0000000   1.0000000   1.0000000   1.0000000   1.0000000
 Leave Link  101 at Tue Apr  9 01:36:38 2019, MaxMem=   671088640 cpu:               5.6 elap:               0.3
 (Enter /shared/centos7/gaussian/g16/l103.exe)

 GradGradGradGradGradGradGradGradGradGradGradGradGradGradGradGradGradGrad
 Berny optimization.
 Initialization pass.
                           ----------------------------
                           !    Initial Parameters    !
                           ! (Angstroms and Degrees)  !
 --------------------------                            --------------------------
 ! Name  Definition              Value          Derivative Info.                !
 --------------------------------------------------------------------------------
 ! R1    R(1,2)                  1.3829         calculate D2E/DX2 analytically  !
 ! R2    R(1,5)                  1.4038         calculate D2E/DX2 analytically  !
 ! R3    R(2,3)                  1.504          calculate D2E/DX2 analytically  !
 ! R4    R(2,4)                  1.5162         calculate D2E/DX2 analytically  !
 ! R5    R(2,6)                  1.0986         calculate D2E/DX2 analytically  !
 ! R6    R(3,7)                  1.1172         calculate D2E/DX2 analytically  !
 ! R7    R(3,8)                  1.0963         calculate D2E/DX2 analytically  !
 ! R8    R(3,9)                  1.109          calculate D2E/DX2 analytically  !
 ! R9    R(4,10)                 1.0959         calculate D2E/DX2 analytically  !
 ! R10   R(4,11)                 1.1182         calculate D2E/DX2 analytically  !
 ! R11   R(4,12)                 1.0992         calculate D2E/DX2 analytically  !
 ! R12   R(5,13)                 1.1115         calculate D2E/DX2 analytically  !
 ! R13   R(5,14)                 1.1009         calculate D2E/DX2 analytically  !
 ! R14   R(5,15)                 1.1            calculate D2E/DX2 analytically  !
 ! A1    A(2,1,5)              112.2693         calculate D2E/DX2 analytically  !
 ! A2    A(1,2,3)              112.2481         calculate D2E/DX2 analytically  !
 ! A3    A(1,2,4)              112.5095         calculate D2E/DX2 analytically  !
 ! A4    A(1,2,6)              104.9471         calculate D2E/DX2 analytically  !
 ! A5    A(3,2,4)              111.8079         calculate D2E/DX2 analytically  !
 ! A6    A(3,2,6)              107.5267         calculate D2E/DX2 analytically  !
 ! A7    A(4,2,6)              107.3089         calculate D2E/DX2 analytically  !
 ! A8    A(2,3,7)              111.2667         calculate D2E/DX2 analytically  !
 ! A9    A(2,3,8)              110.733          calculate D2E/DX2 analytically  !
 ! A10   A(2,3,9)              110.4007         calculate D2E/DX2 analytically  !
 ! A11   A(7,3,8)              108.2033         calculate D2E/DX2 analytically  !
 ! A12   A(7,3,9)              107.9741         calculate D2E/DX2 analytically  !
 ! A13   A(8,3,9)              108.1517         calculate D2E/DX2 analytically  !
 ! A14   A(2,4,10)             110.6443         calculate D2E/DX2 analytically  !
 ! A15   A(2,4,11)             111.6447         calculate D2E/DX2 analytically  !
 ! A16   A(2,4,12)             110.5272         calculate D2E/DX2 analytically  !
 ! A17   A(10,4,11)            107.7225         calculate D2E/DX2 analytically  !
 ! A18   A(10,4,12)            108.4024         calculate D2E/DX2 analytically  !
 ! A19   A(11,4,12)            107.7717         calculate D2E/DX2 analytically  !
 ! A20   A(1,5,13)             110.6674         calculate D2E/DX2 analytically  !
 ! A21   A(1,5,14)             111.2454         calculate D2E/DX2 analytically  !
 ! A22   A(1,5,15)             108.0248         calculate D2E/DX2 analytically  !
 ! A23   A(13,5,14)            108.388          calculate D2E/DX2 analytically  !
 ! A24   A(13,5,15)            109.449          calculate D2E/DX2 analytically  !
 ! A25   A(14,5,15)            109.0401         calculate D2E/DX2 analytically  !
 ! D1    D(5,1,2,3)            -63.8452         calculate D2E/DX2 analytically  !
 ! D2    D(5,1,2,4)             63.3117         calculate D2E/DX2 analytically  !
 ! D3    D(5,1,2,6)            179.6691         calculate D2E/DX2 analytically  !
 ! D4    D(2,1,5,13)            49.0789         calculate D2E/DX2 analytically  !
 ! D5    D(2,1,5,14)           -71.4777         calculate D2E/DX2 analytically  !
 ! D6    D(2,1,5,15)           168.8794         calculate D2E/DX2 analytically  !
 ! D7    D(1,2,3,7)            174.5235         calculate D2E/DX2 analytically  !
 ! D8    D(1,2,3,8)            -65.0949         calculate D2E/DX2 analytically  !
 ! D9    D(1,2,3,9)             54.6524         calculate D2E/DX2 analytically  !
 ! D10   D(4,2,3,7)             46.992          calculate D2E/DX2 analytically  !
 ! D11   D(4,2,3,8)            167.3736         calculate D2E/DX2 analytically  !
 ! D12   D(4,2,3,9)            -72.8791         calculate D2E/DX2 analytically  !
 ! D13   D(6,2,3,7)            -70.5517         calculate D2E/DX2 analytically  !
 ! D14   D(6,2,3,8)             49.83           calculate D2E/DX2 analytically  !
 ! D15   D(6,2,3,9)            169.5773         calculate D2E/DX2 analytically  !
 ! D16   D(1,2,4,10)           172.9152         calculate D2E/DX2 analytically  !
 ! D17   D(1,2,4,11)           -67.1191         calculate D2E/DX2 analytically  !
 ! D18   D(1,2,4,12)            52.8297         calculate D2E/DX2 analytically  !
 ! D19   D(3,2,4,10)           -59.6937         calculate D2E/DX2 analytically  !
 ! D20   D(3,2,4,11)            60.2719         calculate D2E/DX2 analytically  !
 ! D21   D(3,2,4,12)          -179.7792         calculate D2E/DX2 analytically  !
 ! D22   D(6,2,4,10)            57.9805         calculate D2E/DX2 analytically  !
 ! D23   D(6,2,4,11)           177.9462         calculate D2E/DX2 analytically  !
 ! D24   D(6,2,4,12)           -62.105          calculate D2E/DX2 analytically  !
 --------------------------------------------------------------------------------
 Trust Radius=3.00D-01 FncErr=1.00D-07 GrdErr=1.00D-06 EigMax=2.50D+02 EigMin=1.00D-04
 Number of steps in this run=    100 maximum allowed number of steps=    100.
 GradGradGradGradGradGradGradGradGradGradGradGradGradGradGradGradGradGrad

 Leave Link  103 at Tue Apr  9 01:36:38 2019, MaxMem=   671088640 cpu:               0.1 elap:               0.0
 (Enter /shared/centos7/gaussian/g16/l202.exe)
                          Input orientation:                          
 ---------------------------------------------------------------------
 Center     Atomic      Atomic             Coordinates (Angstroms)
 Number     Number       Type             X           Y           Z
 ---------------------------------------------------------------------
      1          8           0        0.747156    0.251184   -0.677421
      2          6           0       -0.208052   -0.000334    0.290360
      3          6           0       -0.806160   -1.373863    0.156753
      4          6           0        0.305752    0.256209    1.693554
      5          6           0        1.855948   -0.602388   -0.565014
      6          1           0       -1.006732    0.728596    0.096376
      7          1           0       -1.501829   -1.596884    1.002020
      8          1           0       -1.366880   -1.463458   -0.781023
      9          1           0       -0.008652   -2.144533    0.157436
     10          1           0       -0.506428    0.169860    2.424211
     11          1           0        1.101647   -0.474556    1.981372
     12          1           0        0.734168    1.265751    1.768597
     13          1           0        1.528707   -1.660743   -0.474748
     14          1           0        2.465250   -0.350869    0.316746
     15          1           0        2.469354   -0.484623   -1.470534
 ---------------------------------------------------------------------
                    Distance matrix (angstroms):
                    1          2          3          4          5
     1  O    0.000000
     2  C    1.382854   0.000000
     3  C    2.397793   1.504050   0.000000
     4  C    2.411719   1.516167   2.501048   0.000000
     5  C    1.403795   2.313921   2.864077   2.870789   0.000000
     6  H    1.975552   1.098571   2.112867   2.120552   3.225507
     7  H    3.360626   2.174693   1.117215   2.679463   3.836572
     8  H    2.723945   2.152086   1.096293   3.446518   3.342861
     9  H    2.647204   2.157549   1.109031   2.867415   2.525248
    10  H    3.346372   2.161322   2.759399   1.095879   3.887499
    11  H    2.778766   2.190826   2.788855   1.118171   2.658832
    12  H    2.648117   2.162391   3.455172   1.099249   3.192816
    13  H    2.075419   2.521643   2.435713   3.141952   1.111463
    14  H    2.074291   2.696315   3.431360   2.632029   1.100913
    15  H    2.033815   3.240955   3.764014   3.904032   1.100047
                    6          7          8          9         10
     6  H    0.000000
     7  H    2.544243   0.000000
     8  H    2.388438   1.793113   0.000000
     9  H    3.042164   1.800782   1.785875   0.000000
    10  H    2.445671   2.476860   3.698868   3.277570   0.000000
    11  H    3.073442   2.999472   3.834367   2.710779   1.788095
    12  H    2.472972   3.712412   4.285271   3.844172   1.780417
    13  H    3.530379   3.371805   2.918415   1.731237   3.987085
    14  H    3.642591   4.214246   4.138619   3.059869   3.680141
    15  H    4.001285   4.808424   4.018736   3.397956   4.944963
                   11         12         13         14         15
    11  H    0.000000
    12  H    1.791364   0.000000
    13  H    2.760787   3.772037   0.000000
    14  H    2.155387   2.778125   1.794254   0.000000
    15  H    3.713001   4.070215   1.805455   1.792282   0.000000
 Stoichiometry    C4H10O
 Framework group  C1[X(C4H10O)]
 Deg. of freedom    39
 Full point group                 C1      NOp   1
 Largest Abelian subgroup         C1      NOp   1
 Largest concise Abelian subgroup C1      NOp   1
                         Standard orientation:                         
 ---------------------------------------------------------------------
 Center     Atomic      Atomic             Coordinates (Angstroms)
 Number     Number       Type             X           Y           Z
 ---------------------------------------------------------------------
      1          8           0       -0.841431   -0.003766    0.749135
      2          6           0        0.514093   -0.008196    0.475607
      3          6           0        0.944168   -1.252356   -0.251901
      4          6           0        0.965463    1.248584   -0.242400
      5          6           0       -1.619796    0.012994   -0.418986
      6          1           0        1.001767   -0.015275    1.459976
      7          1           0        2.019028   -1.195617   -0.551278
      8          1           0        0.811211   -2.137573    0.381006
      9          1           0        0.339688   -1.391036   -1.171315
     10          1           0        2.057424    1.271234   -0.332170
     11          1           0        0.537796    1.310555   -1.273693
     12          1           0        0.643918    2.143818    0.308519
     13          1           0       -1.274709   -0.767079   -1.131552
     14          1           0       -1.564446    0.991093   -0.921250
     15          1           0       -2.663796   -0.186150   -0.135246
 ---------------------------------------------------------------------
 Rotational constants (GHZ):           6.4654507           4.4704267           3.4816045
 Leave Link  202 at Tue Apr  9 01:36:38 2019, MaxMem=   671088640 cpu:               0.2 elap:               0.0
 (Enter /shared/centos7/gaussian/g16/l301.exe)
 Standard basis: 6-311+G(2df,2p) (5D, 7F)
 Ernie: Thresh=  0.10000D-02 Tol=  0.10000D-05 Strict=F.
 There are   285 symmetry adapted cartesian basis functions of A   symmetry.
 There are   260 symmetry adapted basis functions of A   symmetry.
   260 basis functions,   370 primitive gaussians,   285 cartesian basis functions
    21 alpha electrons       21 beta electrons
       nuclear repulsion energy       201.1769917540 Hartrees.
 IExCor= 4336 DFT=T Ex+Corr=M062X ExCW=0 ScaHFX=  0.540000
 ScaDFX=  1.000000  1.000000  1.000000  1.000000 ScalE2=  1.000000  1.000000
 IRadAn=      5 IRanWt=     -1 IRanGd=            0 ICorTp=0 IEmpDi=  4
 NAtoms=   15 NActive=   15 NUniq=   15 SFac= 1.00D+00 NAtFMM=   60 NAOKFM=F Big=F
 Integral buffers will be    131072 words long.
 Raffenetti 2 integral format.
 Two-electron integral symmetry is turned on.
 Leave Link  301 at Tue Apr  9 01:36:38 2019, MaxMem=   671088640 cpu:               0.8 elap:               0.1
 (Enter /shared/centos7/gaussian/g16/l302.exe)
 NPDir=0 NMtPBC=     1 NCelOv=     1 NCel=       1 NClECP=     1 NCelD=      1
         NCelK=      1 NCelE2=     1 NClLst=     1 CellRange=     0.0.
 One-electron integrals computed using PRISM.
 One-electron integral symmetry used in STVInt
 NBasis=   260 RedAO= T EigKep=  3.09D-05  NBF=   260
 NBsUse=   260 1.00D-06 EigRej= -1.00D+00 NBFU=   260
 Precomputing XC quadrature grid using
 IXCGrd= 4 IRadAn=           5 IRanWt=          -1 IRanGd=           0 AccXCQ= 0.00D+00.
 Generated NRdTot=       0 NPtTot=           0 NUsed=           0 NTot=          32
 NSgBfM=   285   285   285   285   285 MxSgAt=    15 MxSgA2=    15.
 Leave Link  302 at Tue Apr  9 01:36:38 2019, MaxMem=   671088640 cpu:               5.6 elap:               0.3
 (Enter /shared/centos7/gaussian/g16/l303.exe)
 DipDrv:  MaxL=1.
 Leave Link  303 at Tue Apr  9 01:36:38 2019, MaxMem=   671088640 cpu:               0.5 elap:               0.0
 (Enter /shared/centos7/gaussian/g16/l401.exe)
 ExpMin= 4.38D-02 ExpMax= 8.59D+03 ExpMxC= 1.30D+03 IAcc=3 IRadAn=         5 AccDes= 0.00D+00
 Harris functional with IExCor= 1009 and IRadAn=       5 diagonalized for initial guess.
 HarFok:  IExCor= 1009 AccDes= 0.00D+00 IRadAn=         5 IDoV= 1 UseB2=F ITyADJ=14
 ICtDFT=  3500011 ScaDFX=  1.000000  1.000000  1.000000  1.000000
 FoFCou: FMM=F IPFlag=           0 FMFlag=      100000 FMFlg1=           0
         NFxFlg=           0 DoJE=T BraDBF=F KetDBF=T FulRan=T
         wScrn=  0.000000 ICntrl=       500 IOpCl=  0 I1Cent=   200000004 NGrid=           0
         NMat0=    1 NMatS0=      1 NMatT0=    0 NMatD0=    1 NMtDS0=    0 NMtDT0=    0
 Petite list used in FoFCou.
 Harris En= -233.565335561513    
 JPrj=0 DoOrth=F DoCkMO=F.
 Leave Link  401 at Tue Apr  9 01:36:39 2019, MaxMem=   671088640 cpu:              18.4 elap:               1.0
 (Enter /shared/centos7/gaussian/g16/l502.exe)
 Integral symmetry usage will be decided dynamically.
 Closed shell SCF:
 Using DIIS extrapolation, IDIIS=  1040.
 NGot=   671088640 LenX=   670917793 LenY=   670836127
 Requested convergence on RMS density matrix=1.00D-08 within 128 cycles.
 Requested convergence on MAX density matrix=1.00D-06.
 Requested convergence on             energy=1.00D-06.
 No special actions if energy rises.
 Fock matrices will be formed incrementally for  20 cycles.

 Cycle   1  Pass 1  IDiag  1:
 FoFJK:  IHMeth= 1 ICntrl=       0 DoSepK=F KAlg= 0 I1Cent=           0 FoldK=F
 IRaf= 990000000 NMat=       1 IRICut=       1 DoRegI=T DoRafI=F ISym2E= 0 IDoP0=0 IntGTp=1.
 FoFCou: FMM=F IPFlag=           0 FMFlag=      100000 FMFlg1=           0
         NFxFlg=           0 DoJE=F BraDBF=F KetDBF=F FulRan=T
         wScrn=  0.000000 ICntrl=         0 IOpCl=  0 I1Cent=           0 NGrid=           0
         NMat0=    1 NMatS0=      1 NMatT0=    0 NMatD0=    1 NMtDS0=    0 NMtDT0=    0
 Symmetry not used in FoFCou.
 E= -233.416056043649    
 DIIS: error= 2.84D-02 at cycle   1 NSaved=   1.
 NSaved= 1 IEnMin= 1 EnMin= -233.416056043649     IErMin= 1 ErrMin= 2.84D-02
 ErrMax= 2.84D-02  0.00D+00 EMaxC= 1.00D-01 BMatC= 2.33D-01 BMatP= 2.33D-01
 IDIUse=3 WtCom= 7.16D-01 WtEn= 2.84D-01
 Coeff-Com:  0.100D+01
 Coeff-En:   0.100D+01
 Coeff:      0.100D+01
 Gap=     0.290 Goal=   None    Shift=    0.000
 GapD=    0.290 DampG=1.000 DampE=0.500 DampFc=0.5000 IDamp=-1.
 Damping current iteration by 5.00D-01
 RMSDP=2.79D-03 MaxDP=1.10D-01              OVMax= 1.49D-01

 Cycle   2  Pass 1  IDiag  1:
 RMSU=  1.36D-03    CP:  9.65D-01
 E= -233.518652246366     Delta-E=       -0.102596202717 Rises=F Damp=T
 DIIS: error= 6.24D-03 at cycle   2 NSaved=   2.
 NSaved= 2 IEnMin= 2 EnMin= -233.518652246366     IErMin= 2 ErrMin= 6.24D-03
 ErrMax= 6.24D-03  0.00D+00 EMaxC= 1.00D-01 BMatC= 1.47D-02 BMatP= 2.33D-01
 IDIUse=3 WtCom= 9.38D-01 WtEn= 6.24D-02
 Coeff-Com: -0.120D+00 0.112D+01
 Coeff-En:   0.000D+00 0.100D+01
 Coeff:     -0.113D+00 0.111D+01
 Gap=     0.359 Goal=   None    Shift=    0.000
 RMSDP=1.00D-03 MaxDP=3.22D-02 DE=-1.03D-01 OVMax= 7.82D-02

 Cycle   3  Pass 1  IDiag  1:
 RMSU=  9.58D-04    CP:  9.70D-01  7.81D-01
 E= -233.612936749905     Delta-E=       -0.094284503539 Rises=F Damp=F
 DIIS: error= 3.37D-03 at cycle   3 NSaved=   3.
 NSaved= 3 IEnMin= 3 EnMin= -233.612936749905     IErMin= 3 ErrMin= 3.37D-03
 ErrMax= 3.37D-03  0.00D+00 EMaxC= 1.00D-01 BMatC= 2.19D-03 BMatP= 1.47D-02
 IDIUse=3 WtCom= 9.66D-01 WtEn= 3.37D-02
 Coeff-Com: -0.709D-01 0.282D+00 0.789D+00
 Coeff-En:   0.000D+00 0.000D+00 0.100D+01
 Coeff:     -0.685D-01 0.273D+00 0.796D+00
 Gap=     0.335 Goal=   None    Shift=    0.000
 RMSDP=1.80D-04 MaxDP=9.71D-03 DE=-9.43D-02 OVMax= 1.08D-02

 Cycle   4  Pass 1  IDiag  1:
 RMSU=  1.50D-04    CP:  9.65D-01  8.39D-01  9.59D-01
 E= -233.614413690122     Delta-E=       -0.001476940217 Rises=F Damp=F
 DIIS: error= 1.42D-03 at cycle   4 NSaved=   4.
 NSaved= 4 IEnMin= 4 EnMin= -233.614413690122     IErMin= 4 ErrMin= 1.42D-03
 ErrMax= 1.42D-03  0.00D+00 EMaxC= 1.00D-01 BMatC= 4.73D-04 BMatP= 2.19D-03
 IDIUse=3 WtCom= 9.86D-01 WtEn= 1.42D-02
 Coeff-Com: -0.234D-01 0.654D-01 0.359D+00 0.599D+00
 Coeff-En:   0.000D+00 0.000D+00 0.544D-01 0.946D+00
 Coeff:     -0.230D-01 0.645D-01 0.355D+00 0.604D+00
 Gap=     0.341 Goal=   None    Shift=    0.000
 RMSDP=7.41D-05 MaxDP=3.35D-03 DE=-1.48D-03 OVMax= 4.77D-03

 Cycle   5  Pass 1  IDiag  1:
 RMSU=  4.32D-05    CP:  9.65D-01  8.17D-01  9.97D-01  7.54D-01
 E= -233.614750079178     Delta-E=       -0.000336389056 Rises=F Damp=F
 DIIS: error= 3.24D-04 at cycle   5 NSaved=   5.
 NSaved= 5 IEnMin= 5 EnMin= -233.614750079178     IErMin= 5 ErrMin= 3.24D-04
 ErrMax= 3.24D-04  0.00D+00 EMaxC= 1.00D-01 BMatC= 2.84D-05 BMatP= 4.73D-04
 IDIUse=3 WtCom= 9.97D-01 WtEn= 3.24D-03
 Coeff-Com: -0.458D-02 0.784D-02 0.986D-01 0.264D+00 0.634D+00
 Coeff-En:   0.000D+00 0.000D+00 0.000D+00 0.000D+00 0.100D+01
 Coeff:     -0.457D-02 0.782D-02 0.983D-01 0.263D+00 0.635D+00
 Gap=     0.340 Goal=   None    Shift=    0.000
 RMSDP=3.06D-05 MaxDP=3.40D-03 DE=-3.36D-04 OVMax= 9.56D-04

 Cycle   6  Pass 1  IDiag  1:
 RMSU=  2.53D-05    CP:  9.66D-01  8.11D-01  1.01D+00  7.46D-01  9.04D-01
 E= -233.614769215636     Delta-E=       -0.000019136458 Rises=F Damp=F
 DIIS: error= 5.57D-05 at cycle   6 NSaved=   6.
 NSaved= 6 IEnMin= 6 EnMin= -233.614769215636     IErMin= 6 ErrMin= 5.57D-05
 ErrMax= 5.57D-05  0.00D+00 EMaxC= 1.00D-01 BMatC= 1.08D-06 BMatP= 2.84D-05
 IDIUse=1 WtCom= 1.00D+00 WtEn= 0.00D+00
 Coeff-Com:  0.183D-03-0.163D-02 0.113D-01 0.560D-01 0.215D+00 0.719D+00
 Coeff:      0.183D-03-0.163D-02 0.113D-01 0.560D-01 0.215D+00 0.719D+00
 Gap=     0.340 Goal=   None    Shift=    0.000
 RMSDP=5.91D-06 MaxDP=2.27D-04 DE=-1.91D-05 OVMax= 2.47D-04

 Cycle   7  Pass 1  IDiag  1:
 RMSU=  3.49D-06    CP:  9.66D-01  8.09D-01  1.01D+00  7.56D-01  9.55D-01
                    CP:  1.03D+00
 E= -233.614770084164     Delta-E=       -0.000000868528 Rises=F Damp=F
 DIIS: error= 2.02D-05 at cycle   7 NSaved=   7.
 NSaved= 7 IEnMin= 7 EnMin= -233.614770084164     IErMin= 7 ErrMin= 2.02D-05
 ErrMax= 2.02D-05  0.00D+00 EMaxC= 1.00D-01 BMatC= 1.15D-07 BMatP= 1.08D-06
 IDIUse=1 WtCom= 1.00D+00 WtEn= 0.00D+00
 Coeff-Com:  0.668D-03-0.158D-02-0.876D-02-0.139D-01-0.129D-01 0.241D+00
 Coeff-Com:  0.795D+00
 Coeff:      0.668D-03-0.158D-02-0.876D-02-0.139D-01-0.129D-01 0.241D+00
 Coeff:      0.795D+00
 Gap=     0.340 Goal=   None    Shift=    0.000
 RMSDP=3.50D-06 MaxDP=2.60D-04 DE=-8.69D-07 OVMax= 8.46D-05

 Cycle   8  Pass 1  IDiag  1:
 RMSU=  1.40D-06    CP:  9.66D-01  8.07D-01  1.01D+00  7.56D-01  9.74D-01
                    CP:  1.09D+00  1.13D+00
 E= -233.614770183511     Delta-E=       -0.000000099347 Rises=F Damp=F
 DIIS: error= 4.14D-06 at cycle   8 NSaved=   8.
 NSaved= 8 IEnMin= 8 EnMin= -233.614770183511     IErMin= 8 ErrMin= 4.14D-06
 ErrMax= 4.14D-06  0.00D+00 EMaxC= 1.00D-01 BMatC= 3.93D-09 BMatP= 1.15D-07
 IDIUse=1 WtCom= 1.00D+00 WtEn= 0.00D+00
 Coeff-Com:  0.142D-03-0.303D-03-0.285D-02-0.632D-02-0.156D-01 0.291D-01
 Coeff-Com:  0.209D+00 0.787D+00
 Coeff:      0.142D-03-0.303D-03-0.285D-02-0.632D-02-0.156D-01 0.291D-01
 Coeff:      0.209D+00 0.787D+00
 Gap=     0.340 Goal=   None    Shift=    0.000
 RMSDP=6.55D-07 MaxDP=6.67D-05 DE=-9.93D-08 OVMax= 1.86D-05

 Cycle   9  Pass 1  IDiag  1:
 RMSU=  3.26D-07    CP:  9.66D-01  8.07D-01  1.01D+00  7.55D-01  9.75D-01
                    CP:  1.10D+00  1.14D+00  9.36D-01
 E= -233.614770188002     Delta-E=       -0.000000004491 Rises=F Damp=F
 DIIS: error= 7.34D-07 at cycle   9 NSaved=   9.
 NSaved= 9 IEnMin= 9 EnMin= -233.614770188002     IErMin= 9 ErrMin= 7.34D-07
 ErrMax= 7.34D-07  0.00D+00 EMaxC= 1.00D-01 BMatC= 1.16D-10 BMatP= 3.93D-09
 IDIUse=1 WtCom= 1.00D+00 WtEn= 0.00D+00
 Coeff-Com: -0.184D-04 0.403D-04 0.126D-04-0.152D-03-0.960D-03-0.587D-02
 Coeff-Com: -0.113D-01 0.107D+00 0.911D+00
 Coeff:     -0.184D-04 0.403D-04 0.126D-04-0.152D-03-0.960D-03-0.587D-02
 Coeff:     -0.113D-01 0.107D+00 0.911D+00
 Gap=     0.340 Goal=   None    Shift=    0.000
 RMSDP=9.45D-08 MaxDP=3.19D-06 DE=-4.49D-09 OVMax= 3.26D-06

 Cycle  10  Pass 1  IDiag  1:
 RMSU=  4.37D-08    CP:  9.66D-01  8.07D-01  1.01D+00  7.55D-01  9.75D-01
                    CP:  1.10D+00  1.15D+00  9.79D-01  1.05D+00
 E= -233.614770188128     Delta-E=       -0.000000000126 Rises=F Damp=F
 DIIS: error= 1.93D-07 at cycle  10 NSaved=  10.
 NSaved=10 IEnMin=10 EnMin= -233.614770188128     IErMin=10 ErrMin= 1.93D-07
 ErrMax= 1.93D-07  0.00D+00 EMaxC= 1.00D-01 BMatC= 1.25D-11 BMatP= 1.16D-10
 IDIUse=1 WtCom= 1.00D+00 WtEn= 0.00D+00
 Coeff-Com: -0.112D-04 0.242D-04 0.996D-04 0.149D-03 0.208D-03-0.320D-02
 Coeff-Com: -0.111D-01 0.981D-02 0.309D+00 0.695D+00
 Coeff:     -0.112D-04 0.242D-04 0.996D-04 0.149D-03 0.208D-03-0.320D-02
 Coeff:     -0.111D-01 0.981D-02 0.309D+00 0.695D+00
 Gap=     0.340 Goal=   None    Shift=    0.000
 RMSDP=1.74D-08 MaxDP=7.81D-07 DE=-1.26D-10 OVMax= 8.83D-07

 Cycle  11  Pass 1  IDiag  1:
 RMSU=  1.30D-08    CP:  9.66D-01  8.07D-01  1.01D+00  7.55D-01  9.75D-01
                    CP:  1.10D+00  1.15D+00  9.81D-01  1.07D+00  1.01D+00
 E= -233.614770188139     Delta-E=       -0.000000000011 Rises=F Damp=F
 DIIS: error= 5.10D-08 at cycle  11 NSaved=  11.
 NSaved=11 IEnMin=11 EnMin= -233.614770188139     IErMin=11 ErrMin= 5.10D-08
 ErrMax= 5.10D-08  0.00D+00 EMaxC= 1.00D-01 BMatC= 8.75D-13 BMatP= 1.25D-11
 IDIUse=1 WtCom= 1.00D+00 WtEn= 0.00D+00
 Coeff-Com: -0.120D-05 0.299D-05 0.230D-04 0.432D-04 0.117D-03-0.439D-03
 Coeff-Com: -0.212D-02-0.551D-02 0.111D-01 0.207D+00 0.789D+00
 Coeff:     -0.120D-05 0.299D-05 0.230D-04 0.432D-04 0.117D-03-0.439D-03
 Coeff:     -0.212D-02-0.551D-02 0.111D-01 0.207D+00 0.789D+00
 Gap=     0.340 Goal=   None    Shift=    0.000
 RMSDP=4.54D-09 MaxDP=2.30D-07 DE=-1.06D-11 OVMax= 2.21D-07

 SCF Done:  E(RM062X) =  -233.614770188     A.U. after   11 cycles
            NFock= 11  Conv=0.45D-08     -V/T= 2.0040
 KE= 2.326730541170D+02 PE=-9.465244661945D+02 EE= 2.790596501354D+02
 Leave Link  502 at Tue Apr  9 01:37:04 2019, MaxMem=   671088640 cpu:             500.5 elap:              25.1
 (Enter /shared/centos7/gaussian/g16/l801.exe)
 DoSCS=F DFT=T ScalE2(SS,OS)=  1.000000  1.000000
 Range of M.O.s used for correlation:     1   260
 NBasis=   260 NAE=    21 NBE=    21 NFC=     0 NFV=     0
 NROrb=    260 NOA=    21 NOB=    21 NVA=   239 NVB=   239

 **** Warning!!: The largest alpha MO coefficient is  0.56678076D+02

 Leave Link  801 at Tue Apr  9 01:37:04 2019, MaxMem=   671088640 cpu:               0.4 elap:               0.0
 (Enter /shared/centos7/gaussian/g16/l1101.exe)
 Using compressed storage, NAtomX=    15.
 Will process     16 centers per pass.
 Leave Link 1101 at Tue Apr  9 01:37:05 2019, MaxMem=   671088640 cpu:               7.0 elap:               0.4
 (Enter /shared/centos7/gaussian/g16/l1102.exe)
 Symmetrizing basis deriv contribution to polar:
 IMax=3 JMax=2 DiffMx= 0.00D+00
 Leave Link 1102 at Tue Apr  9 01:37:05 2019, MaxMem=   671088640 cpu:               0.5 elap:               0.0
 (Enter /shared/centos7/gaussian/g16/l1110.exe)
 Forming Gx(P) for the SCF density, NAtomX=    15.
 Integral derivatives from FoFJK, PRISM(SPDF).
 Do as many integral derivatives as possible in FoFJK.
 G2DrvN: MDV=     671087424.
 G2DrvN: will do    16 centers at a time, making    1 passes.
 Calling FoFCou, ICntrl=  3107 FMM=F I1Cent=   0 AccDes= 0.00D+00.
 FoFJK:  IHMeth= 1 ICntrl=    3107 DoSepK=F KAlg= 0 I1Cent=           0 FoldK=F
 IRaf=         0 NMat=       1 IRICut=       1 DoRegI=T DoRafI=F ISym2E= 0 IDoP0=0 IntGTp=1.
 FoFCou: FMM=F IPFlag=           0 FMFlag=      100000 FMFlg1=           0
         NFxFlg=           0 DoJE=F BraDBF=F KetDBF=F FulRan=T
         wScrn=  0.000000 ICntrl=      3107 IOpCl=  0 I1Cent=           0 NGrid=           0
         NMat0=    1 NMatS0=      1 NMatT0=    0 NMatD0=    1 NMtDS0=    0 NMtDT0=    0
 Symmetry not used in FoFCou.
 End of G2Drv F.D. properties file   721 does not exist.
 End of G2Drv F.D. properties file   722 does not exist.
 End of G2Drv F.D. properties file   788 does not exist.
 Leave Link 1110 at Tue Apr  9 01:38:03 2019, MaxMem=   671088640 cpu:            1167.1 elap:              58.4
 (Enter /shared/centos7/gaussian/g16/l1002.exe)
 Minotr:  Closed shell wavefunction.
          IDoAtm=111111111111111
          Direct CPHF calculation.
          Differentiating once with respect to nuclear coordinates.
          Requested convergence is 1.0D-08 RMS, and 1.0D-07 maximum.
          Secondary convergence is 1.0D-12 RMS, and 1.0D-12 maximum.
          NewPWx=T KeepS1=F KeepF1=F KeepIn=T MapXYZ=F SortEE=F KeepMc=T.
         4548 words used for storage of precomputed grid.
 Keep R1 ints in memory in canonical form, NReq=597923350.
 FoFCou: FMM=F IPFlag=           0 FMFlag=           0 FMFlg1=           0
         NFxFlg=           0 DoJE=F BraDBF=F KetDBF=F FulRan=T
         wScrn=  0.000000 ICntrl=       600 IOpCl=  0 I1Cent=           0 NGrid=           0
         NMat0=    1 NMatS0=  33930 NMatT0=    0 NMatD0=    1 NMtDS0=    0 NMtDT0=    0
 Symmetry not used in FoFCou.
 Two-electron integral symmetry not used.
          MDV=     671088640 using IRadAn=       1.
          Solving linear equations simultaneously, MaxMat=       0.
          There are    48 degrees of freedom in the 1st order CPHF.  IDoFFX=6 NUNeed=     0.
     42 vectors produced by pass  0 Test12= 1.05D-14 2.08D-09 XBig12= 6.76D-02 4.57D-02.
 AX will form    42 AO Fock derivatives at one time.
     42 vectors produced by pass  1 Test12= 1.05D-14 2.08D-09 XBig12= 3.05D-03 9.49D-03.
     42 vectors produced by pass  2 Test12= 1.05D-14 2.08D-09 XBig12= 9.26D-05 1.68D-03.
     42 vectors produced by pass  3 Test12= 1.05D-14 2.08D-09 XBig12= 7.25D-07 1.29D-04.
     42 vectors produced by pass  4 Test12= 1.05D-14 2.08D-09 XBig12= 5.07D-09 9.11D-06.
     42 vectors produced by pass  5 Test12= 1.05D-14 2.08D-09 XBig12= 2.49D-11 5.70D-07.
     19 vectors produced by pass  6 Test12= 1.05D-14 2.08D-09 XBig12= 8.53D-14 3.34D-08.
      1 vectors produced by pass  7 Test12= 1.05D-14 2.08D-09 XBig12= 3.15D-16 2.14D-09.
 InvSVY:  IOpt=1 It=  1 EMax= 1.55D-15
 Solved reduced A of dimension   272 with    42 vectors.
 End of Minotr F.D. properties file   721 does not exist.
 End of Minotr F.D. properties file   722 does not exist.
 End of Minotr F.D. properties file   788 does not exist.
 Leave Link 1002 at Tue Apr  9 01:39:09 2019, MaxMem=   671088640 cpu:            1283.3 elap:              65.3
 (Enter /shared/centos7/gaussian/g16/l601.exe)
 Copying SCF densities to generalized density rwf, IOpCl= 0 IROHF=0.

 **********************************************************************

            Population analysis using the SCF density.

 **********************************************************************

 Orbital symmetries:
       Occupied  (A) (A) (A) (A) (A) (A) (A) (A) (A) (A) (A) (A)
                 (A) (A) (A) (A) (A) (A) (A) (A) (A)
       Virtual   (A) (A) (A) (A) (A) (A) (A) (A) (A) (A) (A) (A)
                 (A) (A) (A) (A) (A) (A) (A) (A) (A) (A) (A) (A)
                 (A) (A) (A) (A) (A) (A) (A) (A) (A) (A) (A) (A)
                 (A) (A) (A) (A) (A) (A) (A) (A) (A) (A) (A) (A)
                 (A) (A) (A) (A) (A) (A) (A) (A) (A) (A) (A) (A)
                 (A) (A) (A) (A) (A) (A) (A) (A) (A) (A) (A) (A)
                 (A) (A) (A) (A) (A) (A) (A) (A) (A) (A) (A) (A)
                 (A) (A) (A) (A) (A) (A) (A) (A) (A) (A) (A) (A)
                 (A) (A) (A) (A) (A) (A) (A) (A) (A) (A) (A) (A)
                 (A) (A) (A) (A) (A) (A) (A) (A) (A) (A) (A) (A)
                 (A) (A) (A) (A) (A) (A) (A) (A) (A) (A) (A) (A)
                 (A) (A) (A) (A) (A) (A) (A) (A) (A) (A) (A) (A)
                 (A) (A) (A) (A) (A) (A) (A) (A) (A) (A) (A) (A)
                 (A) (A) (A) (A) (A) (A) (A) (A) (A) (A) (A) (A)
                 (A) (A) (A) (A) (A) (A) (A) (A) (A) (A) (A) (A)
                 (A) (A) (A) (A) (A) (A) (A) (A) (A) (A) (A) (A)
                 (A) (A) (A) (A) (A) (A) (A) (A) (A) (A) (A) (A)
                 (A) (A) (A) (A) (A) (A) (A) (A) (A) (A) (A) (A)
                 (A) (A) (A) (A) (A) (A) (A) (A) (A) (A) (A) (A)
                 (A) (A) (A) (A) (A) (A) (A) (A) (A) (A) (A)
 The electronic state is 1-A.
 Alpha  occ. eigenvalues --  -19.62054 -10.58114 -10.57373 -10.52539 -10.52521
 Alpha  occ. eigenvalues --   -1.16967  -0.87955  -0.78419  -0.78131  -0.64736
 Alpha  occ. eigenvalues --   -0.58158  -0.54257  -0.53996  -0.48025  -0.47780
 Alpha  occ. eigenvalues --   -0.45802  -0.43523  -0.41970  -0.41222  -0.36449
 Alpha  occ. eigenvalues --   -0.32647
 Alpha virt. eigenvalues --    0.01372   0.02761   0.03431   0.03843   0.06008
 Alpha virt. eigenvalues --    0.06669   0.06712   0.07204   0.07564   0.09346
 Alpha virt. eigenvalues --    0.10720   0.10957   0.12232   0.13009   0.13725
 Alpha virt. eigenvalues --    0.15598   0.17495   0.20120   0.20776   0.22574
 Alpha virt. eigenvalues --    0.22811   0.23864   0.24273   0.25137   0.26535
 Alpha virt. eigenvalues --    0.26770   0.28316   0.29602   0.30856   0.31886
 Alpha virt. eigenvalues --    0.33050   0.34122   0.35729   0.37828   0.41092
 Alpha virt. eigenvalues --    0.42601   0.44308   0.45025   0.47585   0.49978
 Alpha virt. eigenvalues --    0.51572   0.52070   0.54578   0.55409   0.56249
 Alpha virt. eigenvalues --    0.57401   0.58227   0.58581   0.60222   0.60489
 Alpha virt. eigenvalues --    0.61804   0.63163   0.63876   0.65644   0.66708
 Alpha virt. eigenvalues --    0.70004   0.70749   0.72058   0.73333   0.75797
 Alpha virt. eigenvalues --    0.81351   0.84585   0.86539   0.88720   0.90371
 Alpha virt. eigenvalues --    0.92584   0.94611   0.98009   0.99460   1.01255
 Alpha virt. eigenvalues --    1.04134   1.04197   1.07144   1.08400   1.09786
 Alpha virt. eigenvalues --    1.10172   1.13994   1.16291   1.17082   1.17856
 Alpha virt. eigenvalues --    1.21152   1.22327   1.23016   1.24053   1.25358
 Alpha virt. eigenvalues --    1.27137   1.29850   1.31188   1.33179   1.33879
 Alpha virt. eigenvalues --    1.34907   1.35348   1.37170   1.37983   1.39890
 Alpha virt. eigenvalues --    1.41895   1.43836   1.45036   1.46145   1.48074
 Alpha virt. eigenvalues --    1.49946   1.52294   1.54272   1.55840   1.56403
 Alpha virt. eigenvalues --    1.57570   1.59858   1.63065   1.64399   1.68277
 Alpha virt. eigenvalues --    1.68988   1.73142   1.76311   1.85919   2.06168
 Alpha virt. eigenvalues --    2.09582   2.15723   2.28350   2.36082   2.39340
 Alpha virt. eigenvalues --    2.47311   2.47889   2.53377   2.56864   2.59773
 Alpha virt. eigenvalues --    2.63301   2.67317   2.70591   2.74150   2.78652
 Alpha virt. eigenvalues --    2.86687   2.88619   2.93378   2.95954   2.97889
 Alpha virt. eigenvalues --    2.99083   3.01666   3.04283   3.05467   3.08111
 Alpha virt. eigenvalues --    3.12012   3.13858   3.15670   3.16699   3.16988
 Alpha virt. eigenvalues --    3.19917   3.22874   3.26591   3.27078   3.31362
 Alpha virt. eigenvalues --    3.34936   3.36263   3.36846   3.38200   3.39478
 Alpha virt. eigenvalues --    3.44549   3.44851   3.47359   3.49066   3.51716
 Alpha virt. eigenvalues --    3.55060   3.59567   3.60249   3.60899   3.64524
 Alpha virt. eigenvalues --    3.67937   3.72044   3.73348   3.75717   3.76602
 Alpha virt. eigenvalues --    3.82683   3.84964   3.86430   3.87069   3.88808
 Alpha virt. eigenvalues --    3.90399   3.94367   3.98231   3.98427   4.01154
 Alpha virt. eigenvalues --    4.01526   4.05878   4.09274   4.11723   4.15624
 Alpha virt. eigenvalues --    4.18133   4.18267   4.21406   4.23292   4.25164
 Alpha virt. eigenvalues --    4.25995   4.29216   4.30495   4.31257   4.35234
 Alpha virt. eigenvalues --    4.36643   4.38450   4.41350   4.42898   4.48862
 Alpha virt. eigenvalues --    4.49305   4.52811   4.53945   4.57918   4.61747
 Alpha virt. eigenvalues --    4.63125   4.67348   4.68827   4.84907   4.93957
 Alpha virt. eigenvalues --    5.20450   5.26652   5.30020   5.35008   5.42576
 Alpha virt. eigenvalues --    5.49317   5.52125   5.53057   5.55545   5.58454
 Alpha virt. eigenvalues --    5.59720   5.60548   5.62585   5.72934   5.83663
 Alpha virt. eigenvalues --    5.99373   6.27481   6.52835   6.79852   7.23574
 Alpha virt. eigenvalues --    7.26431   7.36523   7.71001   7.77920  24.29981
 Alpha virt. eigenvalues --   24.35854  24.41188  24.57535  50.21405
          Condensed to atoms (all electrons):
               1          2          3          4          5          6
     1  O    8.162791   0.243937  -0.076725  -0.099654   0.135285  -0.073514
     2  C    0.243937   5.523684   0.000361   0.099870  -0.114749   0.505918
     3  C   -0.076725   0.000361   5.289877   0.027679  -0.023239  -0.044719
     4  C   -0.099654   0.099870   0.027679   5.228082   0.002589  -0.054768
     5  C    0.135285  -0.114749  -0.023239   0.002589   5.045308   0.004272
     6  H   -0.073514   0.505918  -0.044719  -0.054768   0.004272   0.524427
     7  H    0.011896  -0.075393   0.431838   0.007595   0.003618  -0.003615
     8  H   -0.003384  -0.043078   0.424477   0.017114   0.000209  -0.009100
     9  H   -0.014402   0.016552   0.405891  -0.029040  -0.013971   0.006128
    10  H    0.011978  -0.067211   0.001336   0.435213   0.002372  -0.006144
    11  H   -0.014569   0.036096  -0.030898   0.382206  -0.001554   0.006503
    12  H    0.002405  -0.048783   0.017259   0.425453  -0.003613  -0.006282
    13  H   -0.047108   0.030681  -0.027919  -0.009960   0.420688  -0.000530
    14  H   -0.050402  -0.017147   0.005677   0.001650   0.440817  -0.000182
    15  H   -0.055344   0.002929   0.001514   0.003786   0.432663   0.000072
               7          8          9         10         11         12
     1  O    0.011896  -0.003384  -0.014402   0.011978  -0.014569   0.002405
     2  C   -0.075393  -0.043078   0.016552  -0.067211   0.036096  -0.048783
     3  C    0.431838   0.424477   0.405891   0.001336  -0.030898   0.017259
     4  C    0.007595   0.017114  -0.029040   0.435213   0.382206   0.425453
     5  C    0.003618   0.000209  -0.013971   0.002372  -0.001554  -0.003613
     6  H   -0.003615  -0.009100   0.006128  -0.006144   0.006503  -0.006282
     7  H    0.551174  -0.021107  -0.033425  -0.000365  -0.000491   0.000436
     8  H   -0.021107   0.510354  -0.029212   0.000259  -0.000188  -0.000341
     9  H   -0.033425  -0.029212   0.559013   0.000885   0.001674  -0.000349
    10  H   -0.000365   0.000259   0.000885   0.528431  -0.031196  -0.017211
    11  H   -0.000491  -0.000188   0.001674  -0.031196   0.558954  -0.032476
    12  H    0.000436  -0.000341  -0.000349  -0.017211  -0.032476   0.503811
    13  H   -0.000141   0.001140  -0.005102   0.000030  -0.001765   0.000542
    14  H    0.000127  -0.000031   0.000269   0.000148  -0.007401  -0.000226
    15  H   -0.000006  -0.000128   0.000767   0.000024   0.000482  -0.000171
              13         14         15
     1  O   -0.047108  -0.050402  -0.055344
     2  C    0.030681  -0.017147   0.002929
     3  C   -0.027919   0.005677   0.001514
     4  C   -0.009960   0.001650   0.003786
     5  C    0.420688   0.440817   0.432663
     6  H   -0.000530  -0.000182   0.000072
     7  H   -0.000141   0.000127  -0.000006
     8  H    0.001140  -0.000031  -0.000128
     9  H   -0.005102   0.000269   0.000767
    10  H    0.000030   0.000148   0.000024
    11  H   -0.001765  -0.007401   0.000482
    12  H    0.000542  -0.000226  -0.000171
    13  H    0.595317  -0.057287  -0.022624
    14  H   -0.057287   0.582844  -0.027265
    15  H   -0.022624  -0.027265   0.520327
 Mulliken charges:
               1
     1  O   -0.133192
     2  C   -0.093667
     3  C   -0.402410
     4  C   -0.437813
     5  C   -0.330695
     6  H    0.151535
     7  H    0.127860
     8  H    0.153016
     9  H    0.134323
    10  H    0.141450
    11  H    0.134623
    12  H    0.159547
    13  H    0.124038
    14  H    0.128410
    15  H    0.142974
 Sum of Mulliken charges =  -0.00000
 Mulliken charges with hydrogens summed into heavy atoms:
               1
     1  O   -0.133192
     2  C    0.057868
     3  C    0.012790
     4  C   -0.002192
     5  C    0.064726
 APT charges:
               1
     1  O   -0.110150
     2  C   -0.331449
     3  C   -1.103330
     4  C   -1.161962
     5  C   -1.095953
     6  H    0.438760
     7  H    0.422137
     8  H    0.421677
     9  H    0.269770
    10  H    0.445009
    11  H    0.290226
    12  H    0.400178
    13  H    0.259236
    14  H    0.317517
    15  H    0.538335
 Sum of APT charges =  -0.00000
 APT charges with hydrogens summed into heavy atoms:
               1
     1  O   -0.110150
     2  C    0.107311
     3  C    0.010254
     4  C   -0.026550
     5  C    0.019135
 Electronic spatial extent (au):  <R**2>=            459.4304
 Charge=             -0.0000 electrons
 Dipole moment (field-independent basis, Debye):
    X=              0.5935    Y=             -0.0084    Z=             -1.2155  Tot=              1.3526
 Quadrupole moment (field-independent basis, Debye-Ang):
   XX=            -32.1504   YY=            -33.7398   ZZ=            -34.8128
   XY=              0.0508   XZ=              2.3410   YZ=              0.0087
 Traceless Quadrupole moment (field-independent basis, Debye-Ang):
   XX=              1.4173   YY=             -0.1721   ZZ=             -1.2451
   XY=              0.0508   XZ=              2.3410   YZ=              0.0087
 Octapole moment (field-independent basis, Debye-Ang**2):
  XXX=             -6.2438  YYY=              0.3576  ZZZ=              2.4047  XYY=             -1.7365
  XXY=             -0.2287  XXZ=             -0.1250  XZZ=              0.5075  YZZ=             -0.2702
  YYZ=              1.8618  XYZ=             -0.0213
 Hexadecapole moment (field-independent basis, Debye-Ang**3):
 XXXX=           -284.6472 YYYY=           -216.7502 ZZZZ=           -107.6497 XXXY=              2.2409
 XXXZ=             -3.8618 YYYX=             -0.9428 YYYZ=             -0.4359 ZZZX=              2.9001
 ZZZY=             -0.0186 XXYY=            -90.3855 XXZZ=            -72.4086 YYZZ=            -53.6967
 XXYZ=             -0.1728 YYXZ=              1.5624 ZZXY=             -0.0798
 N-N= 2.011769917540D+02 E-N=-9.465244646516D+02  KE= 2.326730541170D+02
  Exact polarizability:   0.000   0.000   0.000   0.000   0.000   0.000
 Approx polarizability:  64.579  -0.340  60.344   1.132  -0.116  61.970
 No NMR shielding tensors so no spin-rotation constants.
 Leave Link  601 at Tue Apr  9 01:39:09 2019, MaxMem=   671088640 cpu:               4.2 elap:               0.3
 (Enter /shared/centos7/gaussian/g16/l701.exe)
 SCFChk:  SCF convergence  4.54D-09 required  1.00D-08
 ... and contract with generalized density number  0.
 Compute integral second derivatives.
 Entering OneElI...
 Calculate overlap and kinetic energy integrals
    NBasis = 285  MinDer = 2  MaxDer = 2
 Requested accuracy = 0.1000D-12
 PrmmSu-InSpLW:  IPartL=    0 NPrtUS=   20 NPrtUL=    1 DoSpLW=F IThBeg=    0 IThEnd=   19 NThAct=   20.
 PrsmSu:  NPrtUS=  20 ThrOK=T IAlg=1 NPAlg=1 LenDen=           0 ISkipM=0 DoSpLW=F IThBeg=    0 IThEnd=   19.
 Prism:   IPart=     0 DynPar=F LinDyn=F Incr=           2.
 PRISM was handed    33446629 working-precision words and  4095 shell-pairs
 PRISM was handed    33446629 working-precision words and  4095 shell-pairs
 PRISM was handed    33446629 working-precision words and  4095 shell-pairs
 PRISM was handed    33446629 working-precision words and  4095 shell-pairs
 PRISM was handed    33446629 working-precision words and  4095 shell-pairs
 PRISM was handed    33446629 working-precision words and  4095 shell-pairs
 PRISM was handed    33446629 working-precision words and  4095 shell-pairs
 PRISM was handed    33446629 working-precision words and  4095 shell-pairs
 PRISM was handed    33446629 working-precision words and  4095 shell-pairs
 PRISM was handed    33446629 working-precision words and  4095 shell-pairs
 PRISM was handed    33446629 working-precision words and  4095 shell-pairs
 PRISM was handed    33446629 working-precision words and  4095 shell-pairs
 PRISM was handed    33446629 working-precision words and  4095 shell-pairs
 PRISM was handed    33446629 working-precision words and  4095 shell-pairs
 PRISM was handed    33446629 working-precision words and  4095 shell-pairs
 PRISM was handed    33446629 working-precision words and  4095 shell-pairs
 PRISM was handed    33446629 working-precision words and  4095 shell-pairs
 PRISM was handed    33446629 working-precision words and  4095 shell-pairs
 PRISM was handed    33446629 working-precision words and  4095 shell-pairs
 PRISM was handed    33446629 working-precision words and  4095 shell-pairs
 IPart=  1 NShTot=         228 NBatch=          51 AvBLen=         4.5
 IPart=  7 NShTot=         210 NBatch=          39 AvBLen=         5.4
 IPart=  4 NShTot=         221 NBatch=          46 AvBLen=         4.8
 IPart=  5 NShTot=         213 NBatch=          41 AvBLen=         5.2
 IPart=  8 NShTot=         208 NBatch=          38 AvBLen=         5.5
 IPart=  3 NShTot=         223 NBatch=          47 AvBLen=         4.7
 IPart=  2 NShTot=         223 NBatch=          47 AvBLen=         4.7
 IPart= 18 NShTot=         187 NBatch=          30 AvBLen=         6.2
 IPart= 17 NShTot=         188 NBatch=          30 AvBLen=         6.3
 IPart=  9 NShTot=         208 NBatch=          38 AvBLen=         5.5
 IPart=  0 NShTot=         229 NBatch=          52 AvBLen=         4.4
 IPart= 14 NShTot=         194 NBatch=          33 AvBLen=         5.9
 IPart= 15 NShTot=         190 NBatch=          32 AvBLen=         5.9
 IPart= 13 NShTot=         194 NBatch=          33 AvBLen=         5.9
 IPart= 10 NShTot=         201 NBatch=          38 AvBLen=         5.3
 IPart= 12 NShTot=         194 NBatch=          33 AvBLen=         5.9
 IPart= 16 NShTot=         188 NBatch=          30 AvBLen=         6.3
 IPart= 19 NShTot=         187 NBatch=          30 AvBLen=         6.2
 IPart=  6 NShTot=         210 NBatch=          39 AvBLen=         5.4
 IPart= 11 NShTot=         199 NBatch=          36 AvBLen=         5.5
 PrSmSu:  NxtVal=             41.
 Entering OneElI...
 Calculate potential energy integrals
    NBasis = 285  MinDer = 2  MaxDer = 2
 Requested accuracy = 0.1000D-12
 PrmmSu-InSpLW:  IPartL=    0 NPrtUS=   20 NPrtUL=    1 DoSpLW=F IThBeg=    0 IThEnd=   19 NThAct=   20.
 PrsmSu:  NPrtUS=  20 ThrOK=T IAlg=1 NPAlg=1 LenDen=           0 ISkipM=0 DoSpLW=F IThBeg=    0 IThEnd=   19.
 Prism:   IPart=     0 DynPar=F LinDyn=F Incr=          29.
 PRISM was handed    33460223 working-precision words and  3967 shell-pairs
 PRISM was handed    33460223 working-precision words and  3967 shell-pairs
 PRISM was handed    33460223 working-precision words and  3967 shell-pairs
 PRISM was handed    33460223 working-precision words and  3967 shell-pairs
 PRISM was handed    33460223 working-precision words and  3967 shell-pairs
 PRISM was handed    33460223 working-precision words and  3967 shell-pairs
 PRISM was handed    33460223 working-precision words and  3967 shell-pairs
 PRISM was handed    33460223 working-precision words and  3967 shell-pairs
 PRISM was handed    33460223 working-precision words and  3967 shell-pairs
 PRISM was handed    33460223 working-precision words and  3967 shell-pairs
 PRISM was handed    33460223 working-precision words and  3967 shell-pairs
 PRISM was handed    33460223 working-precision words and  3967 shell-pairs
 PRISM was handed    33460223 working-precision words and  3967 shell-pairs
 PRISM was handed    33460223 working-precision words and  3967 shell-pairs
 PRISM was handed    33460223 working-precision words and  3967 shell-pairs
 PRISM was handed    33460223 working-precision words and  3967 shell-pairs
 PRISM was handed    33460223 working-precision words and  3967 shell-pairs
 PRISM was handed    33460223 working-precision words and  3967 shell-pairs
 PRISM was handed    33460223 working-precision words and  3967 shell-pairs
 PRISM was handed    33460223 working-precision words and  3967 shell-pairs
 IPart= 14 NShTot=        2790 NBatch=         186 AvBLen=        15.0
 IPart=  1 NShTot=        3435 NBatch=         229 AvBLen=        15.0
 IPart= 17 NShTot=        2670 NBatch=         178 AvBLen=        15.0
 IPart= 15 NShTot=        2715 NBatch=         181 AvBLen=        15.0
 IPart= 18 NShTot=        2670 NBatch=         178 AvBLen=        15.0
 IPart= 16 NShTot=        2700 NBatch=         180 AvBLen=        15.0
 IPart=  7 NShTot=        3045 NBatch=         203 AvBLen=        15.0
 IPart=  8 NShTot=        3000 NBatch=         200 AvBLen=        15.0
 IPart=  5 NShTot=        3120 NBatch=         208 AvBLen=        15.0
 IPart= 10 NShTot=        2880 NBatch=         192 AvBLen=        15.0
 IPart= 12 NShTot=        2835 NBatch=         189 AvBLen=        15.0
 IPart=  4 NShTot=        3195 NBatch=         213 AvBLen=        15.0
 IPart=  9 NShTot=        2970 NBatch=         198 AvBLen=        15.0
 IPart= 13 NShTot=        2820 NBatch=         188 AvBLen=        15.0
 IPart= 11 NShTot=        2865 NBatch=         191 AvBLen=        15.0
 IPart=  6 NShTot=        3090 NBatch=         206 AvBLen=        15.0
 IPart=  3 NShTot=        3270 NBatch=         218 AvBLen=        15.0
 IPart=  2 NShTot=        3300 NBatch=         220 AvBLen=        15.0
 IPart=  0 NShTot=        3480 NBatch=         232 AvBLen=        15.0
 IPart= 19 NShTot=        2655 NBatch=         177 AvBLen=        15.0
 PrSmSu:  NxtVal=            581.
 Polarizability after L701:
                1             2             3 
      1  0.000000D+00
      2  0.000000D+00  0.000000D+00
      3  0.000000D+00  0.000000D+00  0.000000D+00
 Dipole Derivatives after L701:
                 1             2             3             4             5 
      1  -0.911504D-01  0.307393D-02  0.367660D+00 -0.270858D+00 -0.895979D-01
      2   0.123857D-01 -0.128211D+00 -0.177221D-01 -0.750920D-01  0.267304D+00
      3   0.212625D+00 -0.144683D-01 -0.111090D+00 -0.425808D+00  0.312091D-01
                 6             7             8             9            10 
      1  -0.476868D+00 -0.101336D+01  0.555194D+00  0.212867D+00 -0.113150D+01
      2   0.316392D-01  0.295026D+00 -0.147476D+01 -0.201821D+00 -0.230241D+00
      3  -0.990793D+00 -0.291387D-02 -0.253211D-01 -0.821864D+00 -0.448705D-01
                11            12            13            14            15 
      1  -0.486678D+00  0.150508D+00 -0.153049D+01  0.431214D-01 -0.766043D+00
      2  -0.149264D+01  0.171662D+00 -0.125929D-01 -0.907570D+00  0.346002D-01
      3   0.112687D-02 -0.861748D+00 -0.315391D-01  0.448391D-01 -0.849797D+00
                16            17            18            19            20 
      1   0.405837D+00 -0.492721D-02  0.360047D+00  0.980920D+00  0.388361D-01
      2  -0.150742D-02  0.185040D+00 -0.628250D-02 -0.471617D+00  0.105967D+00
      3   0.275113D+00 -0.104459D-01  0.725404D+00 -0.219645D+00 -0.655017D-02
                21            22            23            24            25 
      1  -0.269138D+00  0.746762D-01 -0.300757D+00  0.202750D+00  0.763889D-01
      2   0.161483D+00  0.101508D+00  0.927707D+00 -0.555741D+00  0.346449D+00
      3   0.179524D+00 -0.247507D-01 -0.142885D+00  0.262648D+00  0.337528D+00
                26            27            28            29            30 
      1  -0.433324D-01 -0.861326D-01  0.105926D+01  0.151223D-01 -0.855083D-01
      2   0.194591D+00  0.461947D+00  0.548854D+00  0.137708D+00 -0.688805D-01
      3   0.568155D-01  0.538329D+00 -0.133759D+00 -0.132181D-01  0.138055D+00
                31            32            33            34            35 
      1   0.619565D-01  0.430693D-01 -0.167588D+00  0.327535D-01  0.237609D+00
      2  -0.215266D+00  0.180553D+00 -0.456256D+00 -0.284229D+00  0.935649D+00
      3   0.252079D+00 -0.375182D-01  0.628168D+00 -0.461680D-01  0.126799D+00
                36            37            38            39            40 
      1   0.128650D+00 -0.569482D-01  0.305928D+00  0.379200D+00  0.814519D-01
      2   0.462631D+00 -0.175536D+00  0.395759D+00  0.198745D+00  0.772963D-01
      3   0.232130D+00 -0.177192D+00  0.296839D+00  0.438898D+00 -0.306746D-01
                41            42            43            44            45 
      1  -0.534517D+00  0.350697D+00  0.132106D+01  0.217855D+00 -0.301100D+00
      2   0.538188D+00 -0.179635D+00  0.845631D-01  0.134720D+00 -0.363683D-01
      3  -0.302694D+00  0.332911D+00  0.599748D-01 -0.452842D-02  0.159225D+00
 Hessian after L701:
                1             2             3             4             5 
      1  0.397079D+01
      2  0.738913D-01  0.138700D+02
      3 -0.118874D+01  0.385487D-01  0.987051D+01
      4 -0.452823D+00 -0.780497D-01 -0.139068D+01  0.135239D+02
      5 -0.567438D-01 -0.791994D+01  0.195948D-01 -0.126024D+00  0.177952D+02
      6 -0.147199D+01  0.305208D-01 -0.741094D+01  0.120010D+01 -0.474310D-01
      7  0.138326D+00 -0.475868D+00 -0.264274D+00 -0.512890D+01 -0.132483D+01
      8 -0.392043D+00  0.113490D+00  0.252158D+00 -0.134176D+01 -0.265826D+01
      9 -0.274881D+00  0.280648D+00 -0.610318D-01 -0.785292D+00  0.169951D+01
     10  0.137627D+00  0.476643D+00 -0.209890D+00 -0.504630D+01  0.136129D+01
     11  0.364859D+00  0.227469D+00 -0.222306D+00  0.139995D+01 -0.262166D+01
     12 -0.225221D+00 -0.268236D+00 -0.145531D-01 -0.814513D+00 -0.168561D+01
     13 -0.423911D+01 -0.562133D-01  0.359232D+01  0.464910D+00  0.100397D+00
     14 -0.450995D-01 -0.725885D+01 -0.147605D+00  0.917678D-01 -0.155760D+00
     15  0.355474D+01 -0.158012D+00 -0.227457D+01  0.248316D+00  0.345271D-01
     16 -0.122471D+00  0.115601D-01  0.110258D+00 -0.353274D+01 -0.198163D-01
     17  0.792846D-02  0.105451D+00  0.123814D-02 -0.156825D-01 -0.439130D+01
     18  0.154044D+00  0.389622D-02  0.293894D+00  0.138828D+01 -0.365168D-01
     19  0.168046D+00 -0.707488D-01 -0.100852D+00 -0.280853D-01  0.661373D-01
     20 -0.645112D-01 -0.450530D-01  0.292329D-01  0.115943D+00  0.677234D-01
     21 -0.960605D-01  0.279379D-01 -0.174860D-01  0.526798D-01 -0.184645D-02
     22  0.288125D-02 -0.487050D-01 -0.173683D-01  0.440364D-01  0.200899D-01
     23 -0.820814D-01  0.665605D-01  0.274962D-01 -0.432628D-01 -0.102287D-01
     24  0.705753D-02 -0.113677D-01 -0.349709D-01 -0.165267D-02 -0.611989D-01
     25 -0.163135D-01  0.813459D-02  0.323216D-01 -0.200017D-01  0.513488D-02
     26 -0.964076D-02  0.618289D-02 -0.431992D-02 -0.572267D-01 -0.144066D-01
     27 -0.196026D-01  0.303852D-01  0.343761D-02 -0.374673D-01  0.391126D-01
     28  0.177327D+00  0.827991D-01 -0.828310D-01 -0.149565D-01 -0.319512D-01
     29  0.747439D-01 -0.392235D-01 -0.269846D-01 -0.935297D-01  0.703134D-01
     30 -0.703290D-01 -0.226350D-01 -0.340269D-01  0.465774D-01 -0.245803D-02
     31 -0.584775D-02 -0.136507D-02  0.191546D-01 -0.352854D-01  0.588384D-02
     32  0.647049D-02 -0.988939D-03  0.740542D-02  0.501552D-01 -0.413565D-01
     33 -0.163601D-01 -0.183326D-01  0.182129D-02 -0.448495D-01 -0.245165D-01
     34 -0.284029D-02  0.582645D-01 -0.210977D-01  0.573023D-01 -0.320825D-01
     35  0.111694D+00  0.773554D-01 -0.357539D-01  0.442715D-01 -0.143702D-01
     36 -0.266301D-02  0.363127D-02 -0.532528D-01 -0.106146D-01  0.467596D-01
     37  0.561193D-01 -0.297252D-01 -0.197307D+00  0.528800D-02  0.779695D-02
     38 -0.184103D-01  0.319758D+00  0.196020D+00  0.619431D-01 -0.630019D-01
     39 -0.100337D+00  0.215599D+00 -0.901545D-01  0.104779D+00  0.196977D-01
     40  0.358517D-01 -0.270236D-01 -0.154275D+00  0.230057D-02  0.167556D-01
     41 -0.428447D-01  0.403335D+00 -0.146671D+00 -0.217415D-01 -0.224526D-02
     42 -0.788559D-01 -0.157331D+00 -0.132909D+00  0.235155D-01  0.230453D-02
     43  0.152438D+00  0.764053D-01 -0.126748D+00  0.161329D+00  0.795730D-02
     44  0.717866D-01  0.744635D-01  0.119462D-01  0.132501D-01 -0.407470D-01
     45 -0.170800D+00  0.474660D-02 -0.457588D-01  0.208212D-01 -0.192872D-02
                6             7             8             9            10 
      6  0.185500D+02
      7 -0.781107D+00  0.126356D+02
      8  0.167063D+01  0.146961D+01  0.113559D+02
      9 -0.460262D+01  0.593495D+00 -0.103462D+01  0.130816D+02
     10 -0.801070D+00 -0.172042D+00 -0.619230D-01 -0.406583D-02  0.124481D+02
     11 -0.166415D+01 -0.100344D-01  0.161557D+00 -0.448975D-01 -0.134636D+01
     12 -0.458990D+01  0.308842D-02  0.197091D-01 -0.165237D+00  0.563924D+00
     13  0.267943D+00  0.101124D+00 -0.132323D+00  0.379714D-01  0.254685D+00
     14  0.247087D-01 -0.212665D+00 -0.826958D-01 -0.235758D-01  0.256545D+00
     15 -0.166496D-02 -0.916604D-01  0.336534D-01 -0.172658D+00 -0.509449D-01
     16  0.140354D+01  0.738976D-01  0.104170D-01  0.361662D-01  0.836772D-01
     17 -0.314640D-01 -0.268483D-02  0.126285D-02 -0.705942D-01 -0.335377D-02
     18 -0.209278D+01  0.157575D-01 -0.510187D-01  0.538947D-01  0.242290D-01
     19  0.555959D-01 -0.108861D+01  0.679243D-01 -0.709677D+00  0.371515D-02
     20 -0.277692D-01 -0.595181D-01 -0.355698D+01  0.410726D-02 -0.431297D-01
     21  0.632042D-01 -0.722271D+00 -0.354397D-01 -0.330363D+01 -0.163516D-01
     22 -0.110618D-01 -0.364337D+01  0.181178D+00 -0.102138D+00 -0.563317D-01
     23 -0.253861D-01  0.291180D+00 -0.179195D+01 -0.127159D+01  0.135942D-01
     24  0.697086D-01 -0.157207D+00 -0.117269D+01 -0.290509D+01  0.860467D-03
     25  0.232072D-01 -0.295808D+01  0.205402D+00  0.116360D+01  0.228781D-01
     26 -0.233861D-01  0.342346D+00 -0.372840D+01  0.432337D+00 -0.112820D-02
     27 -0.112431D-01  0.134901D+01  0.286842D+00 -0.186782D+01 -0.648309D-03
     28  0.431866D-01  0.152823D-01  0.611373D-01 -0.128166D-01 -0.106190D+01
     29  0.136676D-01  0.391463D-01  0.150154D-01 -0.126198D-01  0.225721D+00
     30  0.463887D-01 -0.463800D-02 -0.896077D-02 -0.292858D-01 -0.255777D+00
     31  0.147619D-01  0.161404D-01 -0.218429D-01  0.136529D-01 -0.324776D+01
     32  0.387165D-01 -0.175557D-02  0.156813D-01  0.908616D-02 -0.171313D+00
     33 -0.239412D-01 -0.378159D-03  0.700718D-02  0.159570D-01  0.100945D+01
     34 -0.155391D-01 -0.539715D-01 -0.212597D-01 -0.127901D-02 -0.346463D+01
     35  0.192069D-01 -0.252559D-01  0.156142D+00  0.374660D-01 -0.687258D+00
     36  0.766376D-01 -0.199215D-02  0.441640D-01 -0.458729D-01 -0.341948D+00
     37  0.465903D-01 -0.107663D-01  0.288124D-01  0.341403D-01 -0.179553D-01
     38  0.334872D-01  0.420026D-01 -0.120443D-01  0.143181D-01  0.139580D-01
     39 -0.351676D-01  0.472504D-01  0.818431D-02  0.398228D-01  0.738347D-02
     40  0.590642D-02  0.154015D-01 -0.407603D-01  0.103053D-01  0.609981D-01
     41 -0.103675D-01 -0.601348D-01  0.260689D-01 -0.207234D-01 -0.569211D-01
     42  0.251987D-02  0.245024D-01 -0.188916D-01 -0.200286D-01  0.835346D-01
     43  0.199464D-01  0.599873D-01 -0.125667D-01  0.817828D-03  0.552489D-01
     44 -0.981240D-03 -0.115455D-01 -0.147743D-01  0.114060D-02  0.236354D-01
     45 -0.401982D-01 -0.957553D-02 -0.723800D-03 -0.179948D-01 -0.868997D-02
               11            12            13            14            15 
     11  0.112664D+02
     12  0.107968D+01  0.130559D+02
     13  0.185722D+00  0.520577D-01  0.121210D+02
     14 -0.170263D+00  0.241408D-01 -0.908083D-02  0.156967D+02
     15 -0.243869D-01 -0.251713D+00 -0.287842D+01  0.104624D+00  0.118548D+02
     16 -0.143547D-01  0.402905D-01  0.103295D+00 -0.288572D-02  0.944135D-01
     17  0.149482D-01  0.728936D-01 -0.334411D-02 -0.479052D-01 -0.215959D-02
     18  0.548891D-01  0.503295D-01  0.128510D+00 -0.163849D-02  0.275612D-01
     19 -0.763461D-01 -0.211799D-01  0.602664D-01 -0.263033D-01 -0.140824D-01
     20  0.284608D-01  0.187982D-01 -0.222455D-01 -0.143039D-01 -0.819805D-03
     21  0.280565D-01 -0.375765D-01 -0.966658D-02  0.291297D-02 -0.189524D-01
     22  0.638387D-02 -0.132442D-03  0.158251D-01 -0.370934D-01  0.138548D-01
     23  0.163604D+00 -0.436348D-01 -0.515417D-01  0.262343D-01 -0.921941D-02
     24 -0.547911D-01 -0.444702D-01  0.273685D-01 -0.304915D-01 -0.201550D-01
     25  0.242867D-01  0.152453D-01 -0.524051D-01 -0.353448D-02 -0.160329D-01
     26 -0.665921D-02 -0.804346D-02 -0.114346D-01  0.177901D-01  0.373413D-01
     27 -0.100564D-01  0.179940D-01 -0.448141D-01  0.511890D-01  0.330260D-01
     28  0.106866D+00 -0.228574D+00  0.500252D-01  0.245934D-01 -0.108284D-01
     29 -0.362889D+01 -0.684418D-02  0.181606D-01 -0.129194D-01  0.449971D-03
     30  0.319832D-02 -0.358750D+01 -0.239854D-02  0.350315D-04 -0.181807D-01
     31 -0.877630D-01  0.847921D+00 -0.737023D-02  0.488434D-01 -0.381087D-01
     32 -0.361942D+01 -0.312418D+00  0.556559D-01  0.441522D-02 -0.410646D-01
     33 -0.158554D+00 -0.133461D+01 -0.781042D-01 -0.634884D-01  0.116455D-01
     34 -0.546065D+00 -0.298918D+00  0.100158D-02  0.237101D-01  0.546969D-02
     35 -0.176071D+01  0.111491D+01  0.399051D-01  0.317093D-01  0.646916D-03
     36  0.101577D+01 -0.307438D+01  0.178782D-01  0.251869D-01 -0.189212D-01
     37 -0.146393D-01 -0.574952D-02 -0.377023D+01 -0.388054D+00 -0.426573D+00
     38  0.454968D-02  0.124902D-01 -0.565855D+00 -0.259593D+01  0.138087D+01
     39  0.207273D-03  0.378469D-02 -0.649270D+00  0.144104D+01 -0.244002D+01
     40 -0.121218D-01  0.713354D-01 -0.392426D+01 -0.160332D+00  0.697070D-01
     41 -0.473489D-01 -0.174551D-01  0.305394D-01 -0.183194D+01 -0.128338D+01
     42 -0.160778D-02 -0.876636D-02 -0.549334D-01 -0.134003D+01 -0.310520D+01
     43  0.196162D-01  0.425958D-03 -0.117878D+01  0.439589D+00 -0.459852D+00
     44 -0.120761D-01 -0.375085D-03  0.421657D+00 -0.360626D+01 -0.730683D-01
     45 -0.105170D-02 -0.193283D-01 -0.406448D+00 -0.670098D-01 -0.360504D+01
               16            17            18            19            20 
     16  0.338471D+01
     17  0.217847D-01  0.439381D+01
     18 -0.177238D+01  0.330382D-01  0.149574D+01
     19 -0.396506D-02  0.168622D-02 -0.108537D-01  0.994779D+00
     20  0.409445D-02  0.777304D-03 -0.500725D-02  0.157589D+00  0.340679D+01
     21  0.824454D-02 -0.509204D-02  0.902483D-03  0.814290D+00 -0.525333D-01
     22  0.208522D-01 -0.405386D-02 -0.525086D-03 -0.681146D-02 -0.695798D-01
     23 -0.887163D-03 -0.406969D-01 -0.216165D-01 -0.439351D-01  0.116061D-01
     24 -0.821356D-02 -0.329203D-01 -0.218141D-02  0.378681D-01  0.356825D-01
     25 -0.112754D-01  0.124853D-01  0.315271D-01 -0.114436D+00 -0.139887D-01
     26  0.188640D-01 -0.412765D-02  0.493135D-01 -0.380009D-01  0.823505D-01
     27  0.357824D-01  0.380151D-01  0.805915D-01 -0.711559D-01 -0.927142D-03
     28 -0.292612D-02 -0.934474D-02  0.685232D-03 -0.172969D-01  0.105712D-01
     29 -0.121982D-01 -0.116614D-02  0.181006D-01 -0.869264D-02  0.716337D-02
     30  0.168040D-01  0.172419D-01 -0.112847D-01  0.372163D-03  0.346990D-03
     31 -0.164866D-01 -0.875123D-02  0.214141D-01  0.676497D-02 -0.435491D-02
     32 -0.152477D-01 -0.616271D-02 -0.492401D-01 -0.844347D-02  0.126873D-02
     33  0.310155D-01 -0.400222D-01  0.897069D-01  0.120664D-01 -0.435532D-02
     34  0.135116D-01  0.435884D-02  0.136330D-02  0.320992D-02 -0.566049D-02
     35 -0.305372D-03 -0.223748D-01  0.685841D-02 -0.169098D-01  0.123131D-01
     36 -0.748619D-02  0.208605D-01 -0.283577D-02 -0.624213D-02  0.451399D-02
     37 -0.310980D-02 -0.342544D-03 -0.215371D-02  0.521515D-02 -0.138809D-02
     38  0.559451D-02 -0.578976D-03  0.909045D-02  0.741795D-02 -0.274146D-02
     39  0.579834D-02  0.181460D-03  0.942253D-02  0.104470D-01 -0.536035D-03
     40  0.127559D-02 -0.877734D-03  0.448208D-02  0.512216D-02 -0.277579D-02
     41 -0.838831D-02 -0.177409D-03 -0.121482D-01 -0.119686D-01  0.161445D-02
     42  0.679450D-02 -0.123982D-02  0.860792D-02  0.558396D-02 -0.944040D-03
     43  0.117614D-01  0.191721D-03  0.156230D-01  0.120846D-01 -0.104627D-02
     44  0.176861D-02 -0.176118D-02  0.199965D-02  0.593462D-03 -0.986745D-03
     45 -0.101986D-02  0.230973D-04 -0.156445D-02 -0.218083D-02  0.210241D-03
               21            22            23            24            25 
     21  0.324995D+01
     22  0.631403D-01  0.355003D+01
     23  0.346739D-01 -0.846907D-01  0.150253D+01
     24  0.908612D-02  0.107180D+00  0.126586D+01  0.300650D+01
     25 -0.918925D-01  0.652577D-01  0.183913D-01 -0.279944D-01  0.310137D+01
     26 -0.125905D-01  0.397730D-01  0.491415D-01  0.846270D-01 -0.282036D+00
     27  0.719027D-01 -0.661950D-01  0.772220D-01 -0.889683D-01 -0.112276D+01
     28  0.457562D-02  0.128568D-02  0.161683D-01 -0.694466D-02  0.116320D-01
     29  0.398902D-02  0.412269D-02  0.112699D-01 -0.439652D-02  0.128793D-01
     30 -0.640808D-02 -0.113825D-02 -0.420905D-02 -0.141759D-02  0.296450D-02
     31 -0.825349D-03 -0.181613D-02 -0.432454D-02  0.279947D-02 -0.120700D-01
     32  0.750799D-03  0.135493D-03  0.485749D-02 -0.383074D-02  0.853346D-02
     33 -0.425403D-02 -0.176544D-03 -0.108951D-01  0.521708D-02 -0.671920D-02
     34 -0.296016D-02 -0.199176D-03 -0.320492D-02  0.100264D-02 -0.215539D-02
     35  0.783713D-02  0.134517D-02  0.436534D-02 -0.604153D-02  0.632339D-02
     36 -0.751624D-03  0.136270D-03  0.494101D-02 -0.162045D-02  0.325304D-02
     37  0.657020D-03  0.539656D-02 -0.100798D-01  0.933803D-02 -0.221882D-01
     38 -0.696217D-03 -0.549523D-02 -0.723138D-02 -0.154717D-02  0.526871D-02
     39 -0.343210D-02  0.132457D-01 -0.184067D-01  0.816085D-02 -0.198975D-02
     40 -0.320933D-03 -0.230907D-03 -0.312841D-02  0.149437D-02 -0.357952D-03
     41  0.205297D-02 -0.271142D-02  0.106166D-01 -0.664219D-02 -0.199916D-02
     42 -0.247757D-02  0.149043D-02 -0.667991D-02  0.219005D-02 -0.130153D-02
     43 -0.323846D-02  0.319563D-02 -0.121974D-01  0.704318D-02  0.814007D-02
     44 -0.128595D-04 -0.698907D-03 -0.670762D-03 -0.256997D-03 -0.528124D-02
     45 -0.711212D-04 -0.312422D-03  0.143658D-02 -0.198446D-02 -0.343002D-02
               26            27            28            29            30 
     26  0.356531D+01
     27 -0.549672D+00  0.180134D+01
     28  0.175916D-01  0.145990D-01  0.906695D+00
     29  0.117636D-01  0.932739D-02 -0.327954D+00  0.347995D+01
     30  0.406224D-02 -0.381724D-02  0.335537D+00  0.232923D-01  0.359985D+01
     31 -0.130766D-02 -0.301931D-02 -0.666278D-01 -0.337869D-02 -0.114066D+00
     32  0.228953D-01  0.761145D-02  0.141756D-01  0.762588D-01  0.685336D-02
     33 -0.101212D-01 -0.165334D-01 -0.903608D-01 -0.533300D-02  0.288207D-01
     34 -0.110266D-02 -0.172128D-02 -0.222775D-01  0.657258D-01  0.459058D-01
     35  0.256669D-02  0.866293D-02  0.315039D-01  0.124388D-01 -0.157010D-01
     36  0.248454D-02  0.345874D-02  0.191093D-01 -0.144378D-01  0.211764D-01
     37  0.217943D-02 -0.915298D-02  0.146438D-02  0.175848D-02  0.707589D-03
     38 -0.125530D-01 -0.266249D-02  0.106202D-01  0.134894D-02  0.284255D-03
     39 -0.268716D-02 -0.158867D-01  0.836087D-02  0.178647D-02 -0.168441D-02
     40 -0.798047D-02 -0.394175D-02  0.964891D-02  0.146479D-02  0.617604D-03
     41  0.104044D-01  0.121499D-01 -0.966617D-02 -0.291550D-02 -0.686021D-03
     42 -0.230098D-02 -0.831777D-02  0.825103D-02  0.417486D-03 -0.230691D-02
     43 -0.108961D-01 -0.189139D-01  0.126202D-01  0.203070D-02 -0.113947D-02
     44 -0.225621D-02  0.280000D-02  0.288982D-02 -0.414898D-03 -0.664551D-03
     45  0.295623D-02  0.830809D-03 -0.194935D-02 -0.415020D-03 -0.325002D-03
               31            32            33            34            35 
     31  0.332088D+01
     32  0.936917D-01  0.349193D+01
     33 -0.774407D+00  0.441505D+00  0.133322D+01
     34  0.912778D-01 -0.228403D-01 -0.301101D-01  0.337839D+01
     35 -0.304982D-02  0.435035D-01 -0.107811D+00  0.473319D+00  0.144932D+01
     36  0.683586D-02 -0.108536D+00 -0.108430D+00  0.310812D+00 -0.105325D+01
     37 -0.492096D-02 -0.607795D-02  0.350808D-03  0.455208D-03  0.528523D-02
     38 -0.560692D-02  0.242612D-03 -0.945534D-02  0.538190D-02  0.158921D-01
     39 -0.415362D-03  0.322429D-02 -0.639463D-02  0.323029D-02  0.138781D-01
     40 -0.433170D-01 -0.116417D-01  0.436967D-02  0.876431D-03  0.747380D-02
     41 -0.105771D-01  0.741034D-02  0.981176D-02  0.667431D-03 -0.107768D-01
     42  0.667214D-02  0.220036D-02  0.628357D-02  0.390872D-02  0.105418D-01
     43  0.643979D-02  0.850189D-02 -0.157909D-01  0.445413D-04  0.116576D-01
     44  0.390292D-02 -0.533838D-03 -0.543940D-02  0.788072D-03  0.262430D-02
     45 -0.236948D-02 -0.226372D-02  0.148895D-02 -0.671525D-04 -0.145217D-02
               36            37            38            39            40 
     36  0.320042D+01
     37  0.220820D-02  0.362100D+01
     38  0.936440D-02  0.303637D+00  0.259031D+01
     39  0.308129D-02  0.474388D+00 -0.158276D+01  0.233914D+01
     40  0.545711D-02  0.165849D+00  0.109144D+00  0.148363D-01  0.366520D+01
     41 -0.323585D-02  0.414467D-01 -0.282081D+00 -0.648007D-01  0.230282D+00
     42  0.300395D-02  0.300052D-02 -0.435616D-01  0.181565D+00 -0.847113D-01
     43  0.525617D-02 -0.316125D-01  0.303993D-01  0.622933D-01  0.564676D-02
     44  0.178289D-02  0.593909D-01  0.440635D-01 -0.346162D-01 -0.984780D-01
     45 -0.171069D-02  0.695549D-01 -0.152454D-01  0.776714D-02  0.547376D-01
               41            42            43            44            45 
     41  0.173489D+01
     42  0.149235D+01  0.304497D+01
     43 -0.759830D-01  0.525484D-01  0.721457D+00
     44 -0.168576D-01  0.647737D-01 -0.483660D+00  0.357619D+01
     45  0.497461D-01  0.308610D-01  0.461729D+00  0.309715D-01  0.369303D+01
 Leave Link  701 at Tue Apr  9 01:39:09 2019, MaxMem=   671088640 cpu:               5.6 elap:               0.3
 (Enter /shared/centos7/gaussian/g16/l702.exe)
 L702 exits ... SP integral derivatives will be done elsewhere.
 Leave Link  702 at Tue Apr  9 01:39:09 2019, MaxMem=   671088640 cpu:               0.3 elap:               0.0
 (Enter /shared/centos7/gaussian/g16/l703.exe)
 Integral derivatives from FoFJK, PRISM(SPDF).
 Compute integral second derivatives, UseDBF=F ICtDFT=           0.
 ICntrl=    100147.
 Calling FoFJK, ICntrl=    100147 FMM=F ISym2X=0 I1Cent= 0 IOpClX= 0 NMat=1 NMatS=1 NMatT=0.
 FoFJK:  IHMeth= 1 ICntrl=  100147 DoSepK=F KAlg= 0 I1Cent=           0 FoldK=F
 IRaf=         0 NMat=       1 IRICut=       1 DoRegI=T DoRafI=F ISym2E= 0 IDoP0=0 IntGTp=1.
 FoFCou: FMM=F IPFlag=           0 FMFlag=      100000 FMFlg1=         800
         NFxFlg=           0 DoJE=F BraDBF=F KetDBF=F FulRan=T
         wScrn=  0.000000 ICntrl=    100147 IOpCl=  0 I1Cent=           0 NGrid=           0
         NMat0=    1 NMatS0=      1 NMatT0=    0 NMatD0=    1 NMtDS0=    0 NMtDT0=    0
 Symmetry not used in FoFCou.
 FoFCou:  KetSym=F NOpSet=  1 NOpAb=1 NOp=  1.
 FoFCou:  CnvScl= 1.00D+00 Thresh= 1.00D-08 IAcrcy=      12.
 PrismS was handed   670727725 working-precision words and  4060 shell-pairs
 FoFCou: LinMIO=F DoNuc=F BraDBF=F KetDBF=F HaveP=T PDBF=F HaveZ=T HaveW=F
         NIJTC =      15 NIJTAt=       0 NIJTCD=       0 NIJTT =      15
         IJTBeg=       1 IJTEnd=      15 KLTBeg=       1 KLTEnd=      15
         IPTBeg=       1 IPTEnd=      15 IPTBCv=       1 IPTECv=      15
         IZTBeg=       1 IZTEnd=      15 IZTBCv=       1 IZTECv=      15
         IWTBeg=      16 IWTEnd=      15 IWTBCv=      16 IWTECv=      15
         INTBeg=       1 INTEnd=       0 IFTBCv=       1 IFTECv=      15
 NCel replicated for PrismC:     1
 CoulSu-InSpLW:  IPartL=    0 NPrtUS=   20 NPrtUL=    1 DoSpLW=F IThBeg=    0 IThEnd=   19 NThAct=   20.
 CoulSu:  IncDef=  1024 NBBP=        8243830 NTPThr=   100 NPartT=   20 Incr=        1024 LDynOK=F GPUOK=T.
 CoulSu:  NPrtUS=  20 ThrOK=T IAlg=1 NPAlg=1 LenDen=           0 LWGrdD=           0 DoCopy=F ISkipM=0
          DoSpLW=F IThBeg=    0 IThEnd=   19.
 Enter PrismC:  IPart=  0 JobTyp=22 DoJE=F Cont=F.
 PrismC:  IPart=     0 DynPar=T LinDyn=F Incr=        1024 UseFst=F UseS4=T ISplat=2.
 PrismC was handed    33462534 working-precision words and  4060 shell-pairs
 Enter PrismC:  IPart= 13 JobTyp=22 DoJE=F Cont=F.
 Enter PrismC:  IPart= 19 JobTyp=22 DoJE=F Cont=F.
 PrismC:  IPart=    13 DynPar=T LinDyn=F Incr=        1024 UseFst=F UseS4=T ISplat=2.
 PrismC was handed    33462534 working-precision words and  4060 shell-pairs
 PrismC:  IPart=    19 DynPar=T LinDyn=F Incr=        1024 UseFst=F UseS4=T ISplat=2.
 PrismC was handed    33462534 working-precision words and  4060 shell-pairs
 Enter PrismC:  IPart=  1 JobTyp=22 DoJE=F Cont=F.
 Enter PrismC:  IPart=  5 JobTyp=22 DoJE=F Cont=F.
 Enter PrismC:  IPart= 12 JobTyp=22 DoJE=F Cont=F.
 Enter PrismC:  IPart=  3 JobTyp=22 DoJE=F Cont=F.
 Enter PrismC:  IPart=  4 JobTyp=22 DoJE=F Cont=F.
 PrismC:  IPart=     5 DynPar=T LinDyn=F Incr=        1024 UseFst=F UseS4=T ISplat=2.
 PrismC:  IPart=     1 DynPar=T LinDyn=F Incr=        1024 UseFst=F UseS4=T ISplat=2.
 PrismC was handed    33462534 working-precision words and  4060 shell-pairs
 PrismC:  IPart=     3 DynPar=T LinDyn=F Incr=        1024 UseFst=F UseS4=T ISplat=2.
 PrismC was handed    33462534 working-precision words and  4060 shell-pairs
 PrismC:  IPart=    12 DynPar=T LinDyn=F Incr=        1024 UseFst=F UseS4=T ISplat=2.
 PrismC:  IPart=     4 DynPar=T LinDyn=F Incr=        1024 UseFst=F UseS4=T ISplat=2.
 PrismC was handed    33462534 working-precision words and  4060 shell-pairs
 PrismC was handed    33462534 working-precision words and  4060 shell-pairs
 PrismC was handed    33462534 working-precision words and  4060 shell-pairs
 Enter PrismC:  IPart=  9 JobTyp=22 DoJE=F Cont=F.
 Enter PrismC:  IPart= 10 JobTyp=22 DoJE=F Cont=F.
 PrismC:  IPart=     9 DynPar=T LinDyn=F Incr=        1024 UseFst=F UseS4=T ISplat=2.
 Enter PrismC:  IPart= 15 JobTyp=22 DoJE=F Cont=F.
 PrismC was handed    33462534 working-precision words and  4060 shell-pairs
 PrismC:  IPart=    10 DynPar=T LinDyn=F Incr=        1024 UseFst=F UseS4=T ISplat=2.
 Enter PrismC:  IPart=  2 JobTyp=22 DoJE=F Cont=F.
 PrismC was handed    33462534 working-precision words and  4060 shell-pairs
 PrismC:  IPart=    15 DynPar=T LinDyn=F Incr=        1024 UseFst=F UseS4=T ISplat=2.
 PrismC:  IPart=     2 DynPar=T LinDyn=F Incr=        1024 UseFst=F UseS4=T ISplat=2.
 PrismC was handed    33462534 working-precision words and  4060 shell-pairs
 PrismC was handed    33462534 working-precision words and  4060 shell-pairs
[...]
 ! D22   D(6,2,4,10)            54.8794         -DE/DX =    0.0                 !
 ! D23   D(6,2,4,11)           174.0472         -DE/DX =    0.0                 !
 ! D24   D(6,2,4,12)           -64.8066         -DE/DX =    0.0                 !
 --------------------------------------------------------------------------------
 GradGradGradGradGradGradGradGradGradGradGradGradGradGradGradGradGradGrad

 Leave Link  103 at Tue Apr  9 01:52:40 2019, MaxMem=   671088640 cpu:               0.5 elap:               0.1
 (Enter /shared/centos7/gaussian/g16/l9999.exe)

 ----------------------------------------------------------------------

 Electric dipole moment (input orientation):
 (Debye = 10**-18 statcoulomb cm , SI units = C m)
                  (au)            (Debye)         (10**-30 SI)
   Tot        0.543459D+00      0.138134D+01      0.460764D+01
   x          0.648117D-02      0.164735D-01      0.549496D-01
   y         -0.360040D+00     -0.915131D+00     -0.305255D+01
   z          0.407034D+00      0.103458D+01      0.345098D+01

 Dipole polarizability, Alpha (input orientation).
 (esu units = cm**3 , SI units = C**2 m**2 J**-1)
 Alpha(0;0):
               (au)            (10**-24 esu)      (10**-40 SI)
   iso        0.542631D+02      0.804096D+01      0.894677D+01
   aniso      0.846521D+01      0.125441D+01      0.139572D+01
   xx         0.569860D+02      0.844445D+01      0.939572D+01
   yx         0.126708D+01      0.187762D+00      0.208914D+00
   yy         0.515168D+02      0.763401D+01      0.849398D+01
   zx        -0.303824D+01     -0.450221D+00     -0.500938D+00
   zy         0.236048D+01      0.349788D+00      0.389191D+00
   zz         0.542864D+02      0.804442D+01      0.895063D+01

 ----------------------------------------------------------------------

 Dipole orientation:
     8          1.41426284         -0.53197293         -1.22911761
     6         -0.43994056          0.38134968          0.48120766
     6         -1.61654042         -1.73190106          2.04388421
     6          0.55553266          2.51404636          2.13976901
     6          3.58505033         -1.60462806         -0.14068523
     1         -1.88998967          1.15067838         -0.76693871
     1         -3.27736118         -1.02564747          3.03613011
     1         -2.19318653         -3.28881160          0.82687310
     1         -0.30558503         -2.44966694          3.46255280
     1         -1.00850625          3.41684876          3.12962460
     1          1.87221075          1.81730236          3.56380308
     1          1.51018247          3.93219284          0.99252645
     1          3.13845567         -3.23494000          1.04859689
     1          4.65306211         -0.23475733          0.97922798
     1          4.77076434         -2.23959039         -1.69436487

 Electric dipole moment (dipole orientation):
 (Debye = 10**-18 statcoulomb cm , SI units = C m)
                  (au)            (Debye)         (10**-30 SI)
   Tot        0.543459D+00      0.138134D+01      0.460764D+01
   x          0.000000D+00      0.000000D+00      0.000000D+00
   y          0.000000D+00      0.000000D+00      0.000000D+00
   z          0.543459D+00      0.138134D+01      0.460764D+01

 Dipole polarizability, Alpha (dipole orientation).
 (esu units = cm**3 , SI units = C**2 m**2 J**-1)
 Alpha(0;0):
               (au)            (10**-24 esu)      (10**-40 SI)
   iso        0.542631D+02      0.804096D+01      0.894677D+01
   aniso      0.846521D+01      0.125441D+01      0.139572D+01
   xx         0.570691D+02      0.845677D+01      0.940943D+01
   yx        -0.107464D+01     -0.159245D+00     -0.177184D+00
   yy         0.550657D+02      0.815989D+01      0.907910D+01
   zx        -0.304712D+01     -0.451536D+00     -0.502402D+00
   zy         0.163604D+01      0.242436D+00      0.269746D+00
   zz         0.506544D+02      0.750621D+01      0.835179D+01

 ----------------------------------------------------------------------

 Test job not archived.
 1\1\GINC-C0206\Freq\RM062X\6-311+G(2df,2p)\C4H10O1\UNDERKOFFLER.C\09-A
 pr-2019\0\\#P Geom=AllCheck Guess=TCheck SCRF=Check Test GenChk RM062X
 /6-311+G(2df,2p) Freq\\Gaussian input prepared by ASE\\0,1\O,0.7393063
 581,0.2234192628,-0.6825688672\C,-0.2288391427,-0.0185931366,0.3271900
 327\C,-0.8466082729,-1.4068980481,0.2131024763\C,0.3134648932,0.247690
 1048,1.7259353948\C,1.8922489553,-0.5781520609,-0.6409315837\H,-1.0021
 474597,0.7204607023,0.1113639201\H,-1.7174550935,-1.4787831166,0.86444
 52352\H,-1.1631335984,-1.598747664,-0.811424886\H,-0.1456997951,-2.185
 6273134,0.5154675556\H,-0.5057165785,0.254782507,2.4446257932\H,1.0174
 855588,-0.5245738385,2.0377607203\H,0.8147527536,1.2142964208,1.762387
 125\H,1.6595485592,-1.6423802948,-0.7383083567\H,2.4677127664,-0.42522
 63401,0.2764391774\H,2.5083278596,-0.2823176783,-1.4868000872\\Version
 =EM64L-G16RevA.03\State=1-A\HF=-233.6225818\RMSD=1.112e-09\RMSF=1.038e
 -06\ZeroPoint=0.1373004\Thermal=0.1441203\Dipole=0.0064812,-0.3600403,
 0.4070343\DipoleDeriv=-1.0346,0.0833962,0.274781,0.1063793,-0.5694657,
 -0.0297272,0.2554956,-0.0143029,-0.7018347,0.6397526,0.1201164,-0.2170
 599,0.1890591,0.3829674,0.00872,-0.2979724,0.0596277,0.6710279,-0.0185
 385,-0.0820627,0.0281709,-0.1328478,-0.1026318,0.0087854,0.0162374,-0.
 0488023,0.0011681,0.0048212,-0.039762,-0.0613598,-0.0477514,0.0347971,
 -0.0516061,0.0142911,-0.0371516,-0.1589246,0.6338114,-0.1404639,-0.051
 0046,-0.2411525,0.4074623,0.1083106,0.0618656,0.033044,0.2611444,-0.08
 74155,0.0659687,-0.0037736,0.0784901,-0.0650985,0.0143243,-0.0168342,0
 .0238822,-0.0094498,-0.0581874,-0.0263492,0.0892901,0.0014713,0.061633
 4,-0.0059379,0.1074165,0.0136937,0.0003449,0.059348,-0.0199578,-0.0442
 743,-0.0204851,0.0229374,-0.0246084,-0.0702853,-0.0588961,-0.0937887,-
 0.0266373,0.1021089,-0.0474965,0.0491171,-0.0381006,0.0152868,-0.05085
 18,0.0312657,0.0479342,-0.0478829,0.0055596,0.1139721,-0.0061494,0.075
 1365,0.0006103,0.0777851,-0.0057757,-0.0215624,-0.013261,0.068413,-0.0
 59069,0.0946782,-0.0463238,0.0350947,-0.0261767,-0.0014689,0.041997,0.
 0212722,-0.0835974,-0.0417753,-0.0813606,-0.0766026,-0.0291321,-0.0166
 379,0.0045504,0.0433981,-0.0032652,-0.0661287,-0.0084083,0.0294961,-0.
 1586709,-0.0414389,-0.0273673,-0.0089244,0.0514043,-0.0430095,0.012694
 8,-0.0494401,0.0111659,0.0171355,-0.0564917,-0.1429306,-0.0144997,-0.0
 868416,-0.0262082,0.0000642,0.0774472,-0.0301104,0.0548242,0.0478102,0
 .115965,0.0237579,-0.046017\Polar=56.9859802,1.2670825,51.5168383,-3.0
 382393,2.3604843,54.2864495\Quadrupole=1.6493737,-0.7134061,-0.9359676
 ,-0.6539683,-0.6352664,1.1326058\PG=C01 [X(C4H10O1)]\NImag=0\\0.441170
 68,-0.11661993,0.23695889,-0.12045579,-0.06444918,0.26787163,-0.142122
 44,0.00168464,0.05672178,0.55760718,-0.01717093,-0.08682892,0.03911390
 ,-0.07863963,0.55779504,0.07830089,0.02503680,-0.15126317,0.03289050,-
 0.01830709,0.48241119,-0.02259861,-0.02900678,0.01099047,-0.09266134,-
 0.02884124,-0.00796636,0.55830145,-0.00873587,-0.00347888,0.00549842,-
 0.03485665,-0.18172504,-0.01372034,-0.03918436,0.49557007,0.02197159,0
 .02645500,-0.00588240,-0.00958366,-0.01579710,-0.07927707,-0.00349225,
 -0.00520911,0.59194101,0.00270582,0.00281916,0.03564117,-0.10316213,-0
 .00659668,-0.05148468,-0.00456040,-0.00338113,-0.01603568,0.57214063,0
 .00042619,0.00345363,0.00527897,-0.00482161,-0.08583739,-0.01695617,-0
 .01473385,-0.00931318,-0.03215987,0.00074326,0.58197129,0.00527573,-0.
 00238133,-0.03781204,-0.04504415,-0.01824150,-0.16555656,-0.00715509,-
 0.00473842,-0.00350869,-0.03350222,-0.02009737,0.49228668,-0.19133368,
 0.07821395,0.00830757,-0.03879519,0.01549546,0.00962374,0.00152059,-0.
 00114499,-0.00114309,0.00462215,-0.00167514,0.00049085,0.53000915,0.09
 733571,-0.13782968,0.01368209,0.00201032,0.00294742,-0.00914846,-0.004
 76035,0.00364274,0.00163108,-0.00196356,-0.00026836,0.00122409,0.04420
 966,0.54785485,-0.01364841,0.02803224,-0.08318014,0.02501323,-0.019242
 40,-0.00083558,0.00028338,0.00093241,-0.00078506,0.00349877,-0.0013179
 6,-0.00045024,-0.02284716,-0.01294376,0.59922763,-0.03104142,0.0171125
 1,0.00607702,-0.17188457,0.12147061,-0.04020400,0.01019141,-0.01057710
 ,0.00268031,-0.00820591,0.00856301,-0.00524651,-0.00004092,-0.00270511
 ,0.00368422,0.20026847,-0.00421459,0.00600301,-0.00118595,0.12764123,-
 0.17326747,0.03580769,0.01944291,-0.02441321,0.00727032,-0.00523126,0.
 00535837,-0.00196666,-0.00183822,0.00128145,0.00042335,-0.13175004,0.1
 8605603,0.02982900,-0.01749440,-0.00138807,-0.04699421,0.04052220,-0.0
 5950473,0.00221510,-0.00322673,0.00165130,-0.02248083,0.02089367,-0.00
 967318,0.00231334,0.00111507,-0.00283963,0.03494524,-0.03933885,0.0739
 3094,-0.00125571,-0.00271517,0.00015091,-0.01037445,0.00295771,0.00767
 930,-0.21969819,-0.01372637,0.12922705,0.00016984,0.00057666,0.0001308
 4,0.00103322,-0.00036291,0.00021375,0.00074216,-0.00013315,-0.00009568
 ,0.23647199,-0.00631939,-0.00678556,0.00147965,-0.02269594,0.00195313,
 0.01888050,-0.01254363,-0.04688630,0.00810823,0.00050911,0.00074434,-0
 .00017175,0.00201636,-0.00232341,-0.00030732,0.00084650,0.00096693,0.0
 0056345,0.01503745,0.05039711,0.00027290,0.00020439,0.00140478,-0.0028
 6130,-0.00018269,-0.00040646,0.12987391,0.00932090,-0.14334568,0.00010
 140,-0.00008306,-0.00026095,-0.00060656,0.00018933,0.00020526,0.000054
 11,0.00042453,0.00013028,-0.14272002,-0.01028810,0.15272719,0.00116568
 ,0.00126458,0.00008717,-0.00557969,-0.00225658,-0.01316751,-0.06957418
 ,-0.01149396,-0.07386574,-0.00091836,-0.00303099,0.00052549,-0.0003727
 1,-0.00011973,-0.00008356,0.00028550,0.00020130,0.00058828,0.00912347,
 0.00504321,0.02487778,0.07131624,0.00261781,0.00258788,0.00069426,-0.0
 0876871,-0.00486158,-0.03140096,-0.01169019,-0.05500643,-0.04115493,-0
 .00258995,-0.00577611,0.00112910,-0.00071303,0.00044075,0.00000655,0.0
 0075212,0.00103141,0.00015571,0.00104299,-0.00087464,0.00211313,0.0151
 8762,0.05851007,-0.00010746,0.00052244,0.00165689,0.00061372,0.0003859
 3,-0.00299547,-0.07479284,-0.04312305,-0.28845801,0.00005977,-0.001134
 32,0.00111297,-0.00019404,-0.00013727,0.00003151,0.00000768,-0.0005511
 9,0.00022335,-0.00598219,-0.00277076,-0.01622220,0.08187759,0.04769656
 ,0.31129352,0.00075766,0.00133379,-0.00037117,0.01046763,-0.00976794,0
 .00358826,-0.15989305,0.12298339,-0.04967256,0.00104381,-0.00009960,0.
 00089465,-0.00125601,0.00121228,0.00095364,-0.00009721,-0.00306136,-0.
 00026250,-0.01667144,0.01806883,-0.00842578,-0.00612435,0.00521285,-0.
 00125611,0.17371981,-0.00125579,0.00175762,0.00003185,0.02382743,-0.02
 329446,0.00719846,0.12233318,-0.17981794,0.05205273,0.00107190,0.00141
 751,0.00144442,0.00065579,-0.00058865,-0.00020589,-0.00354617,-0.00474
 377,-0.00077675,-0.00188043,0.00155320,-0.00136581,-0.00476128,0.00440
 737,-0.00117561,-0.13452414,0.19722668,0.00055429,-0.00000828,0.000011
 53,0.00211935,-0.00203343,-0.00045478,-0.04973774,0.05230735,-0.068876
 03,0.00112346,-0.00074612,0.00045328,-0.00027714,0.00121824,0.00022720
 ,-0.00027711,-0.00087603,0.00069805,0.01243166,-0.01493849,0.00573562,
 -0.01991336,0.02229160,-0.00673691,0.05332071,-0.05677452,0.06946586,0
 .00109881,-0.00019515,-0.00400916,0.00871132,-0.00025545,-0.00749973,-
 0.00029678,-0.00010470,0.00029350,-0.20173548,0.00109168,0.13519399,-0
 .00102532,0.00009542,-0.00060903,0.00074295,0.00030131,0.00061378,0.00
 019275,-0.00028767,-0.00036362,0.00021918,0.00023857,0.00004286,-0.000
 05004,-0.00007955,0.00011212,0.21748610,-0.00000161,0.00109996,-0.0004
 9928,0.00479132,-0.00210653,-0.00229199,-0.00000414,-0.00004470,0.0002
 3252,0.00094018,-0.04626084,-0.00185383,0.00040569,0.00016797,0.000007
 77,-0.00016773,0.00018553,0.00030723,-0.00041831,-0.00020074,-0.000459
 70,0.00000242,0.00003524,0.00018356,0.00010055,-0.00002440,-0.00007474
 ,-0.00133351,0.04572753,-0.00039364,-0.00181642,-0.00873999,0.02568368
 ,0.00082707,-0.01548892,0.00028425,0.00015436,0.00096850,0.13349257,-0
 .00227402,-0.16204123,-0.00279036,0.00141151,-0.00029768,-0.00006891,0
 .00083816,0.00092481,-0.00061487,-0.00065173,0.00002957,-0.00029547,0.
 00028256,0.00020540,-0.00007985,0.00002157,-0.00007778,-0.14618658,0.0
 0150224,0.17647817,0.00080934,-0.00033618,-0.00029360,-0.01010036,0.00
 867171,-0.00289692,0.00026413,0.00079567,0.00061144,-0.15746909,0.1219
 4849,-0.04801370,-0.00111413,0.00005633,0.00046989,0.00037512,-0.00107
 462,-0.00249450,-0.00009259,0.00005274,-0.00006815,0.00030674,-0.00024
 432,0.00017804,0.00005526,-0.00076545,-0.00024341,-0.01548941,0.017436
 00,-0.00753483,0.17147388,-0.00044499,0.00039823,0.00108763,-0.0047190
 7,0.00399212,-0.00105844,-0.00091798,0.00148108,-0.00012700,0.12220860
 ,-0.18440815,0.05239189,0.00220445,-0.00004115,0.00053052,-0.00097799,
 0.00078515,-0.00148527,-0.00009647,-0.00004674,0.00008030,-0.00002357,
 0.00011038,0.00011833,0.00033748,0.00025962,-0.00003331,-0.00078482,-0
 .00021368,-0.00070844,-0.13553284,0.19664754,0.00148839,-0.00092913,0.
 00126226,-0.02332784,0.02381787,-0.00733393,0.00095658,0.00166210,0.00
 119606,-0.04762352,0.05184501,-0.06667115,0.00022948,0.00030518,-0.000
 23417,-0.00201733,-0.00167756,-0.00530015,0.00010192,-0.00008638,-0.00
 002063,0.00039797,0.00000495,0.00013142,0.00012375,-0.00094842,0.00020
 630,0.01330205,-0.01648820,0.00635974,0.05352390,-0.05644891,0.0724323
 9,0.00082279,0.00135563,0.00093886,-0.00701253,-0.01095847,0.00160097,
 -0.00029776,0.00051711,-0.00265974,-0.10419748,-0.10906397,-0.00412471
 ,0.00050842,-0.00008413,0.00004677,-0.00012165,0.00005411,0.00035669,0
 .00029822,0.00036211,-0.00001189,0.00016340,-0.00096322,-0.00016014,0.
 00012625,-0.00027907,0.00002770,-0.01063449,-0.02137484,-0.00206271,0.
 01107887,0.01945536,0.00109036,0.10945764,0.00102839,0.00098734,0.0003
 5628,-0.00252985,-0.00555236,0.00044481,-0.00050513,0.00101074,-0.0018
 8433,-0.10931280,-0.26215182,-0.00575884,-0.00012061,-0.00017982,-0.00
 035837,-0.00003553,0.00049529,-0.00046119,-0.00001788,0.00001565,0.000
 20204,-0.00041143,-0.00023705,0.00001845,0.00002402,0.00047385,0.00015
 663,0.00134877,0.00188726,0.00059476,-0.01091390,-0.01872191,-0.000709
 25,0.12111094,0.28220747,0.00009276,0.00145277,0.00346290,-0.01451971,
 -0.02977756,-0.00073342,-0.00160485,-0.00001705,-0.00628780,-0.0027490
 5,-0.00422328,-0.04645386,0.00058853,-0.00053179,-0.00010874,0.0004272
 8,0.00060164,0.00114448,-0.00018243,0.00018511,0.00014735,-0.00094249,
 -0.00182531,-0.00013082,0.00016849,0.00008684,-0.00006012,0.00844467,0
 .01972651,0.00078253,0.00479814,0.00714538,-0.00085351,0.00547666,0.00
 721633,0.04915583,-0.00070128,0.03937426,0.00281820,0.00362545,0.00208
 223,-0.00158579,-0.00024539,-0.00155155,0.00081986,-0.00050780,-0.0002
 0856,0.00025559,-0.06904026,-0.06831083,-0.00616939,-0.00007310,-0.000
 31222,0.00003911,0.00021395,0.00030385,-0.00022275,-0.00019785,-0.0002
 0790,-0.00029745,-0.00211297,-0.00051987,0.00088694,0.00010062,0.00001
 246,0.00022644,0.00002684,-0.00008789,0.00002844,-0.00008278,0.0000699
 2,-0.00013532,0.07500854,0.01395315,-0.02445432,-0.00156807,-0.0035324
 0,-0.00087511,0.00336023,0.00006750,-0.00041638,0.00047517,0.00054468,
 0.00008117,-0.00033414,-0.06323572,-0.28128951,-0.02330549,0.00027410,
 0.00012993,-0.00019200,-0.00012045,0.00087955,-0.00011739,0.00022597,-
 0.00023144,-0.00009779,-0.00152485,0.00089222,-0.00004560,-0.00002723,
 0.00001924,-0.00024430,-0.00003822,-0.00013842,-0.00022796,-0.00000130
 ,0.00011869,0.00016776,0.06064738,0.31667110,0.00202313,0.00219333,0.0
 0301149,-0.00078421,-0.00162537,0.00037793,0.00042214,0.00017294,0.000
 43191,0.00005961,-0.00014729,-0.00004210,-0.00696016,-0.02256732,-0.05
 553541,0.00007165,0.00016517,-0.00005353,-0.00028340,0.00002668,-0.000
 14332,-0.00018887,-0.00002406,-0.00015670,0.00125660,0.00047126,-0.000
 49166,0.00005009,0.00007378,0.00002103,-0.00022834,-0.00003419,-0.0000
 5760,-0.00010742,0.00021233,0.00003764,0.00641119,0.02354286,0.0501698
 3,-0.02976264,0.00798013,-0.02324692,0.00289851,-0.00006467,-0.0056940
 4,-0.00052783,0.00006365,0.00062419,0.00027097,0.00005404,0.00084118,-
 0.11014436,-0.02335240,-0.10179730,-0.00002620,0.00000372,0.00043522,-
 0.00011406,-0.00024479,0.00007750,0.00019279,0.00015167,0.00004820,-0.
 00003217,-0.00018762,-0.00007235,0.00043654,-0.00023372,0.00009626,-0.
 00041085,-0.00024779,0.00156393,-0.00009815,0.00020743,0.00009708,-0.0
 0253404,-0.00342633,-0.00814839,0.12889029,0.01959426,0.00153734,0.020
 28201,-0.00156276,0.00031081,0.00135461,0.00014564,-0.00015135,-0.0002
 6990,-0.00012194,0.00094079,-0.00078889,-0.02408608,-0.06048019,-0.039
 92904,-0.00002965,0.00000696,-0.00003311,0.00004475,0.00022777,0.00002
 238,0.00016101,-0.00016323,0.00008114,-0.00002009,-0.00002965,-0.00017
 894,0.00004178,-0.00030047,0.00014382,0.00005456,-0.00007194,-0.000025
 47,-0.00007480,-0.00038745,-0.00021458,-0.01506629,-0.00377828,-0.0274
 7845,0.01600113,0.06011106,-0.00580985,0.00566191,0.00598443,0.0017338
 6,0.00082904,-0.00013884,-0.00012567,-0.00001085,0.00010036,-0.0000828
 5,0.00064332,-0.00127058,-0.10615945,-0.03749843,-0.23543772,-0.000213
 95,0.00000861,0.00002675,-0.00005952,-0.00005971,0.00002863,0.00005734
 ,0.00003174,0.00002550,-0.00015533,-0.00004569,-0.00003893,0.00038940,
 -0.00020486,0.00077930,0.00199504,-0.00109992,-0.00135242,-0.00037339,
 -0.00002669,-0.00012126,0.00012214,-0.00037558,-0.00155779,0.12090449,
 0.03807788,0.25337821,-0.02971501,-0.00226545,0.02664350,-0.00161737,0
 .00387387,-0.00318462,0.00007595,0.00039685,0.00022479,-0.00019658,0.0
 0023040,-0.00052194,-0.12457095,-0.04326068,0.11099119,-0.00111463,-0.
 00002910,0.00099198,-0.00003917,-0.00014873,0.00002248,-0.00000587,-0.
 00002632,-0.00003765,0.00006681,-0.00008892,-0.00005512,0.00024325,-0.
 00015476,0.00024401,0.00028623,-0.00037248,0.00016194,-0.00001073,0.00
 005765,0.00004024,-0.00347995,-0.00380629,0.00640638,0.01096120,0.0049
 1850,-0.01222226,0.14911682,0.01980759,0.00459343,-0.01980257,0.002171
 69,-0.00264967,0.00080034,0.00019841,-0.00045122,0.00037718,0.00036044
 ,0.00004879,0.00014325,-0.05038756,-0.07333441,0.06767738,0.00077046,0
 .00012440,-0.00054904,-0.00018840,0.00037972,-0.00006024,0.00001142,0.
 00002738,-0.00001641,-0.00027521,0.00051081,-0.00026438,-0.00004943,0.
 00002864,-0.00008116,-0.00010997,-0.00003213,-0.00009381,-0.00005546,0
 .00003412,0.00000723,-0.01622498,-0.00760845,0.02501834,0.00329555,0.0
 0222784,-0.00593077,0.04067546,0.07610076,0.00060648,-0.00248014,0.003
 59989,-0.00166105,-0.00028887,0.00119981,-0.00015101,-0.00000292,0.000
 13161,-0.00001793,0.00047848,-0.00011236,0.11942445,0.06205045,-0.2199
 8724,0.00008031,0.00005677,0.00002933,0.00000268,0.00003061,-0.0000094
 4,0.00004539,-0.00000089,0.00001957,-0.00008279,-0.00001445,-0.0000616
 5,0.00022568,-0.00016102,0.00009655,0.00019699,-0.00035856,0.00023538,
 -0.00003801,-0.00000296,0.00001879,-0.00319721,-0.00103768,0.00398829,
 0.01427094,0.00895654,-0.02040564,-0.12970492,-0.06722534,0.23125711\\
 -0.00000080,0.00000098,0.00000041,-0.00000042,-0.00000048,0.00000041,0
 .00000076,-0.00000094,-0.00000044,-0.00000046,-0.00000092,0.00000050,-
 0.00000008,0.00000195,-0.00000026,-0.00000110,-0.00000102,0.00000097,0
 .00000091,-0.00000212,-0.00000033,0.00000078,-0.00000057,-0.00000049,0
 .00000150,-0.00000054,-0.00000100,-0.00000036,-0.00000208,0.00000060,0
 .00000025,-0.00000050,-0.00000011,-0.00000129,-0.00000051,0.00000103,0
 .00000083,0.00000184,-0.00000090,-0.00000009,0.00000188,-0.00000023,-0
 .00000044,0.00000302,-0.00000017\\\@


 ADVERTISING--  HE WHO HAS SOMETHING TO SELL AND GOES AND WHISPERS
                IN A WELL, IS NOT SO APT TO GET THE DOLLARS AS HE
                WHO CLIMBS A TREE AND HOLLERS.

                   -- FROM THE BACK OF A SUGAR PACKET
 Job cpu time:       0 days  1 hours 12 minutes 21.3 seconds.
 Elapsed time:       0 days  0 hours  3 minutes 37.9 seconds.
 File lengths (MBytes):  RWF=   1328 Int=      0 D2E=      0 Chk=     32 Scr=     32
 Normal termination of Gaussian 16 at Tue Apr  9 01:52:40 2019.
