 Entering Gaussian System, Link 0=g16
 Input=RMGHERXMTMUMMV-UHFFFAOYSA-N_GeoFreq_a1.com
 Output=RMGHERXMTMUMMV-UHFFFAOYSA-N_GeoFreq_a1.log
 Initial command:
 /shared/centos7/gaussian/g16/l1.exe "/scratch/underkoffler.c/gaussian_scratch/Gau-28788.inp" -scrdir="/scratch/underkoffler.c/gaussian_scratch/"
 Entering Link 1 = /shared/centos7/gaussian/g16/l1.exe PID=     28789.
  
 Copyright (c) 1988,1990,1992,1993,1995,1998,2003,2009,2016,
            Gaussian, Inc.  All Rights Reserved.
  
 This is part of the Gaussian(R) 16 program.  It is based on
 the Gaussian(R) 09 system (copyright 2009, Gaussian, Inc.),
 the Gaussian(R) 03 system (copyright 2003, Gaussian, Inc.),
 the Gaussian(R) 98 system (copyright 1998, Gaussian, Inc.),
 the Gaussian(R) 94 system (copyright 1995, Gaussian, Inc.),
 the Gaussian 92(TM) system (copyright 1992, Gaussian, Inc.),
 the Gaussian 90(TM) system (copyright 1990, Gaussian, Inc.),
 the Gaussian 88(TM) system (copyright 1988, Gaussian, Inc.),
 the Gaussian 86(TM) system (copyright 1986, Carnegie Mellon
 University), and the Gaussian 82(TM) system (copyright 1983,
 Carnegie Mellon University). Gaussian is a federally registered
 trademark of Gaussian, Inc.
  
 This software contains proprietary and confidential information,
 including trade secrets, belonging to Gaussian, Inc.
  
 This software is provided under written license and may be
 used, copied, transmitted, or stored only in accord with that
 written license.
  
 The following legend is applicable only to US Government
 contracts under FAR:
  
                    RESTRICTED RIGHTS LEGEND
  
 Use, reproduction and disclosure by the US Government is
 subject to restrictions as set forth in subparagraphs (a)
 and (c) of the Commercial Computer Software - Restricted
 Rights clause in FAR 52.227-19.
  
 Gaussian, Inc.
 340 Quinnipiac St., Bldg. 40, Wallingford CT 06492
  
  
 ---------------------------------------------------------------
 Warning -- This program may not be used in any manner that
 competes with the business of Gaussian, Inc. or will provide
 assistance to any competitor of Gaussian, Inc.  The licensee
 of this program is prohibited from giving any competitor of
 Gaussian, Inc. access to this program.  By using this program,
 the user acknowledges that Gaussian, Inc. is engaged in the
 business of creating and licensing software in the field of
 computational chemistry and represents and warrants to the
 licensee that it is not a competitor of Gaussian, Inc. and that
 it will not use this program in any manner prohibited above.
 ---------------------------------------------------------------
  

 Cite this work as:
 Gaussian 16, Revision A.03,
 M. J. Frisch, G. W. Trucks, H. B. Schlegel, G. E. Scuseria, 
 M. A. Robb, J. R. Cheeseman, G. Scalmani, V. Barone, 
 G. A. Petersson, H. Nakatsuji, X. Li, M. Caricato, A. V. Marenich, 
 J. Bloino, B. G. Janesko, R. Gomperts, B. Mennucci, H. P. Hratchian, 
 J. V. Ortiz, A. F. Izmaylov, J. L. Sonnenberg, D. Williams-Young, 
 F. Ding, F. Lipparini, F. Egidi, J. Goings, B. Peng, A. Petrone, 
 T. Henderson, D. Ranasinghe, V. G. Zakrzewski, J. Gao, N. Rega, 
 G. Zheng, W. Liang, M. Hada, M. Ehara, K. Toyota, R. Fukuda, 
 J. Hasegawa, M. Ishida, T. Nakajima, Y. Honda, O. Kitao, H. Nakai, 
 T. Vreven, K. Throssell, J. A. Montgomery, Jr., J. E. Peralta, 
 F. Ogliaro, M. J. Bearpark, J. J. Heyd, E. N. Brothers, K. N. Kudin, 
 V. N. Staroverov, T. A. Keith, R. Kobayashi, J. Normand, 
 K. Raghavachari, A. P. Rendell, J. C. Burant, S. S. Iyengar, 
 J. Tomasi, M. Cossi, J. M. Millam, M. Klene, C. Adamo, R. Cammi, 
 J. W. Ochterski, R. L. Martin, K. Morokuma, O. Farkas, 
 J. B. Foresman, and D. J. Fox, Gaussian, Inc., Wallingford CT, 2016.
 
 ******************************************
 Gaussian 16:  EM64L-G16RevA.03 25-Dec-2016
                11-Mar-2019 
 ******************************************
 %nprocshared=20
 Will use up to   20 processors via shared memory.
 %mem=5GB
 ----------------------------------------------------------------------
 #p m062x/6-311+g(2df,2p) opt=(calcfc,verytight,gdiis,maxcycles=900) fr
 eq iop(7/33=1,2/16=3)
 ----------------------------------------------------------------------

 Warning!  Use of Opt=GDIIS is deprecated since it is seldom a good choice.

 1/6=900,7=1,10=4,18=20,19=11,26=3,38=1/1,3;
 2/9=110,12=2,16=3,17=6,18=5,40=1/2;
 3/5=4,6=6,7=214,11=2,25=1,30=1,71=2,74=-55,140=1/1,2,3;
 4//1;
 5/5=2,38=5/2;
 8/6=4,10=90,11=11/1;
 11/6=1,8=1,9=11,15=111,16=1/1,2,10;
 10/6=1,13=1/2;
 6/7=2,8=2,9=2,10=2,28=1/1;
 7/10=1,18=20,25=1,33=1/1,2,3,16;
 1/6=900,7=1,10=4,18=20,19=11,26=3/3(2);
 2/9=110,16=3/2;
 99//99;
 2/9=110,16=3/2;
 3/5=4,6=6,7=214,11=2,25=1,30=1,71=1,74=-55/1,2,3;
 4/5=5,16=3,69=1/1;
 5/5=2,38=5/2;
 7/33=1/1,2,3,16;
 1/6=900,7=1,18=20,19=11,26=3/3(-5);
 2/9=110,16=3/2;
 6/7=2,8=2,9=2,10=2,19=2,28=1/1;
 99/9=1/99;
 Leave Link    1 at Mon Mar 11 15:42:25 2019, MaxMem=   671088640 cpu:              27.9 elap:               1.5
 (Enter /shared/centos7/gaussian/g16/l101.exe)
 ------------------------------
 Gaussian input prepared by ASE
 ------------------------------
 Symbolic Z-matrix:
 Charge =  0 Multiplicity = 1
 O                     0.67917  -0.6329   -0.30886 
 C                    -0.42185  -0.00969   0.32654 
 C                    -0.5821    1.44291  -0.10306 
 C                    -1.64265  -0.83585  -0.0268 
 C                     1.93315  -0.12635   0.06561 
 H                    -0.25964  -0.0456    1.41333 
 H                    -0.67631   1.4963   -1.1886 
 H                     0.26414   2.05598   0.20363 
 H                    -1.47991   1.8688    0.34435 
 H                    -2.52875  -0.44459   0.47168 
 H                    -1.49789  -1.87246   0.27179 
 H                    -1.80735  -0.80713  -1.10429 
 H                     2.11413   0.87195  -0.34246 
 H                     2.03206  -0.08211   1.15637 
 H                     2.68674  -0.8041   -0.32877 
 
 ITRead=  0  0  0  0  0  0  0  0  0  0  0  0  0  0  0
 MicOpt= -1 -1 -1 -1 -1 -1 -1 -1 -1 -1 -1 -1 -1 -1 -1
 NAtoms=     15 NQM=       15 NQMF=       0 NMMI=      0 NMMIF=      0
                NMic=       0 NMicF=      0.
                    Isotopes and Nuclear Properties:
 (Nuclear quadrupole moments (NQMom) in fm**2, nuclear magnetic moments (NMagM)
  in nuclear magnetons)

  Atom         1           2           3           4           5           6           7           8           9          10
 IAtWgt=          16          12          12          12          12           1           1           1           1           1
 AtmWgt=  15.9949146  12.0000000  12.0000000  12.0000000  12.0000000   1.0078250   1.0078250   1.0078250   1.0078250   1.0078250
 NucSpn=           0           0           0           0           0           1           1           1           1           1
 AtZEff=  -0.0000000  -0.0000000  -0.0000000  -0.0000000  -0.0000000  -0.0000000  -0.0000000  -0.0000000  -0.0000000  -0.0000000
 NQMom=    0.0000000   0.0000000   0.0000000   0.0000000   0.0000000   0.0000000   0.0000000   0.0000000   0.0000000   0.0000000
 NMagM=    0.0000000   0.0000000   0.0000000   0.0000000   0.0000000   2.7928460   2.7928460   2.7928460   2.7928460   2.7928460
 AtZNuc=   8.0000000   6.0000000   6.0000000   6.0000000   6.0000000   1.0000000   1.0000000   1.0000000   1.0000000   1.0000000

  Atom        11          12          13          14          15
 IAtWgt=           1           1           1           1           1
 AtmWgt=   1.0078250   1.0078250   1.0078250   1.0078250   1.0078250
 NucSpn=           1           1           1           1           1
 AtZEff=  -0.0000000  -0.0000000  -0.0000000  -0.0000000  -0.0000000
 NQMom=    0.0000000   0.0000000   0.0000000   0.0000000   0.0000000
 NMagM=    2.7928460   2.7928460   2.7928460   2.7928460   2.7928460
 AtZNuc=   1.0000000   1.0000000   1.0000000   1.0000000   1.0000000
 Leave Link  101 at Mon Mar 11 15:42:25 2019, MaxMem=   671088640 cpu:               5.6 elap:               0.3
 (Enter /shared/centos7/gaussian/g16/l103.exe)

 GradGradGradGradGradGradGradGradGradGradGradGradGradGradGradGradGradGrad
 Berny optimization.
 Initialization pass.
                           ----------------------------
                           !    Initial Parameters    !
                           ! (Angstroms and Degrees)  !
 --------------------------                            --------------------------
 ! Name  Definition              Value          Derivative Info.                !
 --------------------------------------------------------------------------------
 ! R1    R(1,2)                  1.4158         calculate D2E/DX2 analytically  !
 ! R2    R(1,5)                  1.4033         calculate D2E/DX2 analytically  !
 ! R3    R(2,3)                  1.5232         calculate D2E/DX2 analytically  !
 ! R4    R(2,4)                  1.5158         calculate D2E/DX2 analytically  !
 ! R5    R(2,6)                  1.0994         calculate D2E/DX2 analytically  !
 ! R6    R(3,7)                  1.0909         calculate D2E/DX2 analytically  !
 ! R7    R(3,8)                  1.089          calculate D2E/DX2 analytically  !
 ! R8    R(3,9)                  1.0898         calculate D2E/DX2 analytically  !
 ! R9    R(4,10)                 1.0894         calculate D2E/DX2 analytically  !
 ! R10   R(4,11)                 1.0884         calculate D2E/DX2 analytically  !
 ! R11   R(4,12)                 1.0904         calculate D2E/DX2 analytically  !
 ! R12   R(5,13)                 1.0936         calculate D2E/DX2 analytically  !
 ! R13   R(5,14)                 1.0961         calculate D2E/DX2 analytically  !
 ! R14   R(5,15)                 1.0876         calculate D2E/DX2 analytically  !
 ! A1    A(2,1,5)              114.5994         calculate D2E/DX2 analytically  !
 ! A2    A(1,2,3)              112.0256         calculate D2E/DX2 analytically  !
 ! A3    A(1,2,4)              106.3669         calculate D2E/DX2 analytically  !
 ! A4    A(1,2,6)              108.3325         calculate D2E/DX2 analytically  !
 ! A5    A(3,2,4)              111.671          calculate D2E/DX2 analytically  !
 ! A6    A(3,2,6)              108.9936         calculate D2E/DX2 analytically  !
 ! A7    A(4,2,6)              109.3565         calculate D2E/DX2 analytically  !
 ! A8    A(2,3,7)              109.6572         calculate D2E/DX2 analytically  !
 ! A9    A(2,3,8)              112.0653         calculate D2E/DX2 analytically  !
 ! A10   A(2,3,9)              110.0941         calculate D2E/DX2 analytically  !
 ! A11   A(7,3,8)              108.6489         calculate D2E/DX2 analytically  !
 ! A12   A(7,3,9)              108.5571         calculate D2E/DX2 analytically  !
 ! A13   A(8,3,9)              107.7312         calculate D2E/DX2 analytically  !
 ! A14   A(2,4,10)             110.6511         calculate D2E/DX2 analytically  !
 ! A15   A(2,4,11)             110.3664         calculate D2E/DX2 analytically  !
 ! A16   A(2,4,12)             109.7334         calculate D2E/DX2 analytically  !
 ! A17   A(10,4,11)            108.9479         calculate D2E/DX2 analytically  !
 ! A18   A(10,4,12)            108.6533         calculate D2E/DX2 analytically  !
 ! A19   A(11,4,12)            108.4369         calculate D2E/DX2 analytically  !
 ! A20   A(1,5,13)             112.1995         calculate D2E/DX2 analytically  !
 ! A21   A(1,5,14)             111.1459         calculate D2E/DX2 analytically  !
 ! A22   A(1,5,15)             107.3055         calculate D2E/DX2 analytically  !
 ! A23   A(13,5,14)            108.6357         calculate D2E/DX2 analytically  !
 ! A24   A(13,5,15)            108.5969         calculate D2E/DX2 analytically  !
 ! A25   A(14,5,15)            108.8734         calculate D2E/DX2 analytically  !
 ! D1    D(5,1,2,3)             66.8721         calculate D2E/DX2 analytically  !
 ! D2    D(5,1,2,4)           -170.8528         calculate D2E/DX2 analytically  !
 ! D3    D(5,1,2,6)            -53.3866         calculate D2E/DX2 analytically  !
 ! D4    D(2,1,5,13)           -71.7988         calculate D2E/DX2 analytically  !
 ! D5    D(2,1,5,14)            50.0643         calculate D2E/DX2 analytically  !
 ! D6    D(2,1,5,15)           168.9975         calculate D2E/DX2 analytically  !
 ! D7    D(1,2,3,7)             56.3264         calculate D2E/DX2 analytically  !
 ! D8    D(1,2,3,8)            -64.4167         calculate D2E/DX2 analytically  !
 ! D9    D(1,2,3,9)            175.7015         calculate D2E/DX2 analytically  !
 ! D10   D(4,2,3,7)            -62.8726         calculate D2E/DX2 analytically  !
 ! D11   D(4,2,3,8)            176.3844         calculate D2E/DX2 analytically  !
 ! D12   D(4,2,3,9)             56.5026         calculate D2E/DX2 analytically  !
 ! D13   D(6,2,3,7)            176.1992         calculate D2E/DX2 analytically  !
 ! D14   D(6,2,3,8)             55.4562         calculate D2E/DX2 analytically  !
 ! D15   D(6,2,3,9)            -64.4256         calculate D2E/DX2 analytically  !
 ! D16   D(1,2,4,10)           177.0797         calculate D2E/DX2 analytically  !
 ! D17   D(1,2,4,11)            56.412          calculate D2E/DX2 analytically  !
 ! D18   D(1,2,4,12)           -63.0311         calculate D2E/DX2 analytically  !
 ! D19   D(3,2,4,10)           -60.421          calculate D2E/DX2 analytically  !
 ! D20   D(3,2,4,11)           178.9113         calculate D2E/DX2 analytically  !
 ! D21   D(3,2,4,12)            59.4682         calculate D2E/DX2 analytically  !
 ! D22   D(6,2,4,10)            60.2957         calculate D2E/DX2 analytically  !
 ! D23   D(6,2,4,11)           -60.372          calculate D2E/DX2 analytically  !
 ! D24   D(6,2,4,12)          -179.8151         calculate D2E/DX2 analytically  !
 --------------------------------------------------------------------------------
 Trust Radius=3.00D-01 FncErr=1.00D-07 GrdErr=1.00D-06 EigMax=2.50D+02 EigMin=1.00D-04
 Number of steps in this run=    100 maximum allowed number of steps=    100.
 GradGradGradGradGradGradGradGradGradGradGradGradGradGradGradGradGradGrad

 Leave Link  103 at Mon Mar 11 15:42:25 2019, MaxMem=   671088640 cpu:               0.2 elap:               0.0
 (Enter /shared/centos7/gaussian/g16/l202.exe)
                          Input orientation:                          
 ---------------------------------------------------------------------
 Center     Atomic      Atomic             Coordinates (Angstroms)
 Number     Number       Type             X           Y           Z
 ---------------------------------------------------------------------
      1          8           0        0.679173   -0.632900   -0.308855
      2          6           0       -0.421845   -0.009685    0.326544
      3          6           0       -0.582095    1.442911   -0.103056
      4          6           0       -1.642645   -0.835850   -0.026798
      5          6           0        1.933148   -0.126349    0.065612
      6          1           0       -0.259636   -0.045598    1.413333
      7          1           0       -0.676305    1.496300   -1.188595
      8          1           0        0.264143    2.055981    0.203626
      9          1           0       -1.479905    1.868801    0.344350
     10          1           0       -2.528745   -0.444594    0.471675
     11          1           0       -1.497893   -1.872455    0.271791
     12          1           0       -1.807352   -0.807133   -1.104293
     13          1           0        2.114127    0.871949   -0.342460
     14          1           0        2.032061   -0.082105    1.156373
     15          1           0        2.686742   -0.804104   -0.328768
 ---------------------------------------------------------------------
                    Distance matrix (angstroms):
                    1          2          3          4          5
     1  O    0.000000
     2  C    1.415758   0.000000
     3  C    2.437651   1.523244   0.000000
     4  C    2.347676   1.515834   2.514624   0.000000
     5  C    1.403308   2.372275   2.969423   3.646673   0.000000
     6  H    2.047491   1.099414   2.149203   2.147368   2.575107
     7  H    2.672968   2.151369   1.090927   2.778940   3.318926
     8  H    2.768568   2.180061   1.089049   3.471545   2.750853
     9  H    3.368502   2.156042   1.089779   2.734844   3.963237
    10  H    3.306875   2.156209   2.771721   1.089371   4.491621
    11  H    2.571626   2.151927   3.459891   1.088420   3.855313
    12  H    2.616464   2.145425   2.750714   1.090389   3.977874
    13  H    2.079614   2.766948   2.766392   4.138787   1.093561
    14  H    2.068955   2.591431   3.278055   3.933381   1.096130
    15  H    2.014954   3.274729   3.973074   4.340021   1.087562
                    6          7          8          9         10
     6  H    0.000000
     7  H    3.053046   0.000000
     8  H    2.480800   1.770865   0.000000
     9  H    2.509324   1.770438   1.759700   0.000000
    10  H    2.488930   3.155170   3.758317   2.543241   0.000000
    11  H    2.484714   3.762478   4.306045   3.742003   1.772399
    12  H    3.051852   2.567524   3.768178   3.060459   1.770739
    13  H    3.091836   2.981991   2.263312   3.792425   4.894115
    14  H    2.306347   3.914778   2.933372   4.098697   4.626139
    15  H    3.505908   4.164282   3.785831   4.995844   5.288786
                   11         12         13         14         15
    11  H    0.000000
    12  H    1.767564   0.000000
    13  H    4.577745   4.333325   0.000000
    14  H    4.055664   4.514130   1.778610   0.000000
    15  H    4.360415   4.560519   1.771222   1.776382   0.000000
 Stoichiometry    C4H10O
 Framework group  C1[X(C4H10O)]
 Deg. of freedom    39
 Full point group                 C1      NOp   1
 Largest Abelian subgroup         C1      NOp   1
 Largest concise Abelian subgroup C1      NOp   1
                         Standard orientation:                         
 ---------------------------------------------------------------------
 Center     Atomic      Atomic             Coordinates (Angstroms)
 Number     Number       Type             X           Y           Z
 ---------------------------------------------------------------------
      1          8           0        0.679173   -0.632900   -0.308855
      2          6           0       -0.421845   -0.009685    0.326544
      3          6           0       -0.582095    1.442911   -0.103056
      4          6           0       -1.642645   -0.835850   -0.026798
      5          6           0        1.933148   -0.126350    0.065612
      6          1           0       -0.259636   -0.045598    1.413333
      7          1           0       -0.676305    1.496300   -1.188595
      8          1           0        0.264144    2.055981    0.203626
      9          1           0       -1.479904    1.868801    0.344350
     10          1           0       -2.528745   -0.444593    0.471675
     11          1           0       -1.497893   -1.872455    0.271791
     12          1           0       -1.807352   -0.807133   -1.104293
     13          1           0        2.114127    0.871948   -0.342460
     14          1           0        2.032061   -0.082106    1.156373
     15          1           0        2.686742   -0.804105   -0.328768
 ---------------------------------------------------------------------
 Rotational constants (GHZ):           7.7292833           3.8506449           2.8503204
 Leave Link  202 at Mon Mar 11 15:42:25 2019, MaxMem=   671088640 cpu:               0.1 elap:               0.0
 (Enter /shared/centos7/gaussian/g16/l301.exe)
 Standard basis: 6-311+G(2df,2p) (5D, 7F)
 Ernie: Thresh=  0.10000D-02 Tol=  0.10000D-05 Strict=F.
 There are   285 symmetry adapted cartesian basis functions of A   symmetry.
 There are   260 symmetry adapted basis functions of A   symmetry.
   260 basis functions,   370 primitive gaussians,   285 cartesian basis functions
    21 alpha electrons       21 beta electrons
       nuclear repulsion energy       197.4095626503 Hartrees.
 IExCor= 4336 DFT=T Ex+Corr=M062X ExCW=0 ScaHFX=  0.540000
 ScaDFX=  1.000000  1.000000  1.000000  1.000000 ScalE2=  1.000000  1.000000
 IRadAn=      5 IRanWt=     -1 IRanGd=            0 ICorTp=0 IEmpDi=  4
 NAtoms=   15 NActive=   15 NUniq=   15 SFac= 1.00D+00 NAtFMM=   60 NAOKFM=F Big=F
 Integral buffers will be    131072 words long.
 Raffenetti 2 integral format.
 Two-electron integral symmetry is turned on.
 Leave Link  301 at Mon Mar 11 15:42:26 2019, MaxMem=   671088640 cpu:               1.2 elap:               0.1
 (Enter /shared/centos7/gaussian/g16/l302.exe)
 NPDir=0 NMtPBC=     1 NCelOv=     1 NCel=       1 NClECP=     1 NCelD=      1
         NCelK=      1 NCelE2=     1 NClLst=     1 CellRange=     0.0.
 One-electron integrals computed using PRISM.
 One-electron integral symmetry used in STVInt
 NBasis=   260 RedAO= T EigKep=  4.54D-05  NBF=   260
 NBsUse=   260 1.00D-06 EigRej= -1.00D+00 NBFU=   260
 Precomputing XC quadrature grid using
 IXCGrd= 4 IRadAn=           5 IRanWt=          -1 IRanGd=           0 AccXCQ= 0.00D+00.
 Generated NRdTot=       0 NPtTot=           0 NUsed=           0 NTot=          32
 NSgBfM=   285   285   285   285   285 MxSgAt=    15 MxSgA2=    15.
 Leave Link  302 at Mon Mar 11 15:42:26 2019, MaxMem=   671088640 cpu:               5.4 elap:               0.3
 (Enter /shared/centos7/gaussian/g16/l303.exe)
 DipDrv:  MaxL=1.
 Leave Link  303 at Mon Mar 11 15:42:26 2019, MaxMem=   671088640 cpu:               0.6 elap:               0.0
 (Enter /shared/centos7/gaussian/g16/l401.exe)
 ExpMin= 4.38D-02 ExpMax= 8.59D+03 ExpMxC= 1.30D+03 IAcc=3 IRadAn=         5 AccDes= 0.00D+00
 Harris functional with IExCor= 1009 and IRadAn=       5 diagonalized for initial guess.
 HarFok:  IExCor= 1009 AccDes= 0.00D+00 IRadAn=         5 IDoV= 1 UseB2=F ITyADJ=14
 ICtDFT=  3500011 ScaDFX=  1.000000  1.000000  1.000000  1.000000
 FoFCou: FMM=F IPFlag=           0 FMFlag=      100000 FMFlg1=           0
         NFxFlg=           0 DoJE=T BraDBF=F KetDBF=T FulRan=T
         wScrn=  0.000000 ICntrl=       500 IOpCl=  0 I1Cent=   200000004 NGrid=           0
         NMat0=    1 NMatS0=      1 NMatT0=    0 NMatD0=    1 NMtDS0=    0 NMtDT0=    0
 Petite list used in FoFCou.
 Harris En= -233.583114777724    
 JPrj=0 DoOrth=F DoCkMO=F.
 Leave Link  401 at Mon Mar 11 15:42:27 2019, MaxMem=   671088640 cpu:              19.3 elap:               1.0
 (Enter /shared/centos7/gaussian/g16/l502.exe)
 Integral symmetry usage will be decided dynamically.
 Closed shell SCF:
 Using DIIS extrapolation, IDIIS=  1040.
 NGot=   671088640 LenX=   670917793 LenY=   670836127
 Requested convergence on RMS density matrix=1.00D-08 within 128 cycles.
 Requested convergence on MAX density matrix=1.00D-06.
 Requested convergence on             energy=1.00D-06.
 No special actions if energy rises.
 Fock matrices will be formed incrementally for  20 cycles.

 Cycle   1  Pass 1  IDiag  1:
 FoFJK:  IHMeth= 1 ICntrl=       0 DoSepK=F KAlg= 0 I1Cent=           0 FoldK=F
 IRaf= 980000000 NMat=       1 IRICut=       1 DoRegI=T DoRafI=F ISym2E= 0 IDoP0=0 IntGTp=1.
 FoFCou: FMM=F IPFlag=           0 FMFlag=      100000 FMFlg1=           0
         NFxFlg=           0 DoJE=F BraDBF=F KetDBF=F FulRan=T
         wScrn=  0.000000 ICntrl=         0 IOpCl=  0 I1Cent=           0 NGrid=           0
         NMat0=    1 NMatS0=      1 NMatT0=    0 NMatD0=    1 NMtDS0=    0 NMtDT0=    0
 Symmetry not used in FoFCou.
 E= -233.419632931591    
 DIIS: error= 2.45D-02 at cycle   1 NSaved=   1.
 NSaved= 1 IEnMin= 1 EnMin= -233.419632931591     IErMin= 1 ErrMin= 2.45D-02
 ErrMax= 2.45D-02  0.00D+00 EMaxC= 1.00D-01 BMatC= 2.41D-01 BMatP= 2.41D-01
 IDIUse=3 WtCom= 7.55D-01 WtEn= 2.45D-01
 Coeff-Com:  0.100D+01
 Coeff-En:   0.100D+01
 Coeff:      0.100D+01
 Gap=     0.316 Goal=   None    Shift=    0.000
 GapD=    0.316 DampG=1.000 DampE=0.500 DampFc=0.5000 IDamp=-1.
 Damping current iteration by 5.00D-01
 RMSDP=2.34D-03 MaxDP=1.13D-01              OVMax= 1.50D-01

 Cycle   2  Pass 1  IDiag  1:
 RMSU=  1.14D-03    CP:  9.70D-01
 E= -233.526705490082     Delta-E=       -0.107072558490 Rises=F Damp=T
 DIIS: error= 5.03D-03 at cycle   2 NSaved=   2.
 NSaved= 2 IEnMin= 2 EnMin= -233.526705490082     IErMin= 2 ErrMin= 5.03D-03
 ErrMax= 5.03D-03  0.00D+00 EMaxC= 1.00D-01 BMatC= 1.45D-02 BMatP= 2.41D-01
 IDIUse=3 WtCom= 9.50D-01 WtEn= 5.03D-02
 Coeff-Com: -0.128D+00 0.113D+01
 Coeff-En:   0.000D+00 0.100D+01
 Coeff:     -0.121D+00 0.112D+01
 Gap=     0.365 Goal=   None    Shift=    0.000
 RMSDP=8.36D-04 MaxDP=5.07D-02 DE=-1.07D-01 OVMax= 7.44D-02

 Cycle   3  Pass 1  IDiag  1:
 RMSU=  8.31D-04    CP:  9.59D-01  9.80D-01
 E= -233.623334789840     Delta-E=       -0.096629299758 Rises=F Damp=F
 DIIS: error= 3.34D-03 at cycle   3 NSaved=   3.
 NSaved= 3 IEnMin= 3 EnMin= -233.623334789840     IErMin= 3 ErrMin= 3.34D-03
 ErrMax= 3.34D-03  0.00D+00 EMaxC= 1.00D-01 BMatC= 2.36D-03 BMatP= 1.45D-02
 IDIUse=3 WtCom= 9.67D-01 WtEn= 3.34D-02
 Coeff-Com: -0.711D-01 0.293D+00 0.778D+00
 Coeff-En:   0.000D+00 0.000D+00 0.100D+01
 Coeff:     -0.688D-01 0.283D+00 0.786D+00
 Gap=     0.338 Goal=   None    Shift=    0.000
 RMSDP=1.69D-04 MaxDP=9.15D-03 DE=-9.66D-02 OVMax= 1.38D-02

 Cycle   4  Pass 1  IDiag  1:
 RMSU=  1.52D-04    CP:  9.56D-01  1.04D+00  9.91D-01
 E= -233.624619977850     Delta-E=       -0.001285188010 Rises=F Damp=F
 DIIS: error= 1.63D-03 at cycle   4 NSaved=   4.
 NSaved= 4 IEnMin= 4 EnMin= -233.624619977850     IErMin= 4 ErrMin= 1.63D-03
 ErrMax= 1.63D-03  0.00D+00 EMaxC= 1.00D-01 BMatC= 8.33D-04 BMatP= 2.36D-03
 IDIUse=3 WtCom= 9.84D-01 WtEn= 1.63D-02
 Coeff-Com: -0.252D-01 0.695D-01 0.405D+00 0.551D+00
 Coeff-En:   0.000D+00 0.000D+00 0.202D+00 0.798D+00
 Coeff:     -0.248D-01 0.684D-01 0.402D+00 0.555D+00
 Gap=     0.344 Goal=   None    Shift=    0.000
 RMSDP=6.60D-05 MaxDP=4.34D-03 DE=-1.29D-03 OVMax= 5.57D-03

 Cycle   5  Pass 1  IDiag  1:
 RMSU=  4.03D-05    CP:  9.56D-01  1.03D+00  1.00D+00  6.70D-01
 E= -233.625198507815     Delta-E=       -0.000578529965 Rises=F Damp=F
 DIIS: error= 2.72D-04 at cycle   5 NSaved=   5.
 NSaved= 5 IEnMin= 5 EnMin= -233.625198507815     IErMin= 5 ErrMin= 2.72D-04
 ErrMax= 2.72D-04  0.00D+00 EMaxC= 1.00D-01 BMatC= 1.73D-05 BMatP= 8.33D-04
 IDIUse=3 WtCom= 9.97D-01 WtEn= 2.72D-03
 Coeff-Com: -0.362D-02 0.630D-02 0.921D-01 0.191D+00 0.714D+00
 Coeff-En:   0.000D+00 0.000D+00 0.000D+00 0.000D+00 0.100D+01
 Coeff:     -0.361D-02 0.628D-02 0.918D-01 0.191D+00 0.715D+00
 Gap=     0.344 Goal=   None    Shift=    0.000
 RMSDP=1.52D-05 MaxDP=5.58D-04 DE=-5.79D-04 OVMax= 7.50D-04

 Cycle   6  Pass 1  IDiag  1:
 RMSU=  1.42D-05    CP:  9.56D-01  1.02D+00  1.01D+00  6.83D-01  9.26D-01
 E= -233.625210313991     Delta-E=       -0.000011806176 Rises=F Damp=F
 DIIS: error= 5.29D-05 at cycle   6 NSaved=   6.
 NSaved= 6 IEnMin= 6 EnMin= -233.625210313991     IErMin= 6 ErrMin= 5.29D-05
 ErrMax= 5.29D-05  0.00D+00 EMaxC= 1.00D-01 BMatC= 1.25D-06 BMatP= 1.73D-05
 IDIUse=1 WtCom= 1.00D+00 WtEn= 0.00D+00
 Coeff-Com:  0.358D-03-0.198D-02 0.112D-01 0.433D-01 0.270D+00 0.678D+00
 Coeff:      0.358D-03-0.198D-02 0.112D-01 0.433D-01 0.270D+00 0.678D+00
 Gap=     0.344 Goal=   None    Shift=    0.000
 RMSDP=3.61D-06 MaxDP=2.25D-04 DE=-1.18D-05 OVMax= 2.64D-04

 Cycle   7  Pass 1  IDiag  1:
 RMSU=  2.99D-06    CP:  9.56D-01  1.02D+00  1.01D+00  6.88D-01  9.69D-01
                    CP:  9.77D-01
 E= -233.625211381945     Delta-E=       -0.000001067953 Rises=F Damp=F
 DIIS: error= 1.91D-05 at cycle   7 NSaved=   7.
 NSaved= 7 IEnMin= 7 EnMin= -233.625211381945     IErMin= 7 ErrMin= 1.91D-05
 ErrMax= 1.91D-05  0.00D+00 EMaxC= 1.00D-01 BMatC= 8.36D-08 BMatP= 1.25D-06
 IDIUse=1 WtCom= 1.00D+00 WtEn= 0.00D+00
 Coeff-Com:  0.602D-03-0.140D-02-0.899D-02-0.114D-01-0.197D-01 0.185D+00
 Coeff-Com:  0.856D+00
 Coeff:      0.602D-03-0.140D-02-0.899D-02-0.114D-01-0.197D-01 0.185D+00
 Coeff:      0.856D+00
 Gap=     0.344 Goal=   None    Shift=    0.000
 RMSDP=1.94D-06 MaxDP=7.01D-05 DE=-1.07D-06 OVMax= 7.78D-05

 Cycle   8  Pass 1  IDiag  1:
 RMSU=  1.10D-06    CP:  9.56D-01  1.02D+00  1.01D+00  6.90D-01  9.85D-01
                    CP:  1.06D+00  1.01D+00
 E= -233.625211462965     Delta-E=       -0.000000081020 Rises=F Damp=F
 DIIS: error= 2.82D-06 at cycle   8 NSaved=   8.
 NSaved= 8 IEnMin= 8 EnMin= -233.625211462965     IErMin= 8 ErrMin= 2.82D-06
 ErrMax= 2.82D-06  0.00D+00 EMaxC= 1.00D-01 BMatC= 2.23D-09 BMatP= 8.36D-08
 IDIUse=1 WtCom= 1.00D+00 WtEn= 0.00D+00
 Coeff-Com:  0.107D-03-0.229D-03-0.248D-02-0.403D-02-0.142D-01 0.183D-01
 Coeff-Com:  0.190D+00 0.813D+00
 Coeff:      0.107D-03-0.229D-03-0.248D-02-0.403D-02-0.142D-01 0.183D-01
 Coeff:      0.190D+00 0.813D+00
 Gap=     0.344 Goal=   None    Shift=    0.000
 RMSDP=3.05D-07 MaxDP=1.06D-05 DE=-8.10D-08 OVMax= 1.26D-05

 Cycle   9  Pass 1  IDiag  1:
 RMSU=  2.41D-07    CP:  9.56D-01  1.02D+00  1.01D+00  6.90D-01  9.85D-01
                    CP:  1.06D+00  1.03D+00  1.01D+00
 E= -233.625211465309     Delta-E=       -0.000000002344 Rises=F Damp=F
 DIIS: error= 5.96D-07 at cycle   9 NSaved=   9.
 NSaved= 9 IEnMin= 9 EnMin= -233.625211465309     IErMin= 9 ErrMin= 5.96D-07
 ErrMax= 5.96D-07  0.00D+00 EMaxC= 1.00D-01 BMatC= 1.36D-10 BMatP= 2.23D-09
 IDIUse=1 WtCom= 1.00D+00 WtEn= 0.00D+00
 Coeff-Com: -0.156D-04 0.346D-04-0.208D-04-0.177D-03-0.136D-02-0.547D-02
 Coeff-Com: -0.110D-01 0.161D+00 0.857D+00
 Coeff:     -0.156D-04 0.346D-04-0.208D-04-0.177D-03-0.136D-02-0.547D-02
 Coeff:     -0.110D-01 0.161D+00 0.857D+00
 Gap=     0.344 Goal=   None    Shift=    0.000
 RMSDP=8.53D-08 MaxDP=2.98D-06 DE=-2.34D-09 OVMax= 3.84D-06

 Cycle  10  Pass 1  IDiag  1:
 RMSU=  4.45D-08    CP:  9.56D-01  1.02D+00  1.01D+00  6.90D-01  9.85D-01
                    CP:  1.06D+00  1.03D+00  1.07D+00  1.06D+00
 E= -233.625211465450     Delta-E=       -0.000000000141 Rises=F Damp=F
 DIIS: error= 2.29D-07 at cycle  10 NSaved=  10.
 NSaved=10 IEnMin=10 EnMin= -233.625211465450     IErMin=10 ErrMin= 2.29D-07
 ErrMax= 2.29D-07  0.00D+00 EMaxC= 1.00D-01 BMatC= 2.01D-11 BMatP= 1.36D-10
 IDIUse=1 WtCom= 1.00D+00 WtEn= 0.00D+00
 Coeff-Com: -0.108D-04 0.238D-04 0.120D-03 0.146D-03 0.330D-03-0.285D-02
 Coeff-Com: -0.146D-01 0.114D-01 0.322D+00 0.683D+00
 Coeff:     -0.108D-04 0.238D-04 0.120D-03 0.146D-03 0.330D-03-0.285D-02
 Coeff:     -0.146D-01 0.114D-01 0.322D+00 0.683D+00
 Gap=     0.344 Goal=   None    Shift=    0.000
 RMSDP=1.57D-08 MaxDP=9.82D-07 DE=-1.41D-10 OVMax= 1.01D-06

 Cycle  11  Pass 1  IDiag  1:
 RMSU=  1.19D-08    CP:  9.56D-01  1.02D+00  1.01D+00  6.90D-01  9.85D-01
                    CP:  1.06D+00  1.03D+00  1.07D+00  1.09D+00  9.23D-01
 E= -233.625211465471     Delta-E=       -0.000000000021 Rises=F Damp=F
 DIIS: error= 3.78D-08 at cycle  11 NSaved=  11.
 NSaved=11 IEnMin=11 EnMin= -233.625211465471     IErMin=11 ErrMin= 3.78D-08
 ErrMax= 3.78D-08  0.00D+00 EMaxC= 1.00D-01 BMatC= 7.20D-13 BMatP= 2.01D-11
 IDIUse=1 WtCom= 1.00D+00 WtEn= 0.00D+00
 Coeff-Com: -0.289D-06 0.115D-05 0.205D-04 0.339D-04 0.156D-03-0.101D-03
 Coeff-Com: -0.197D-02-0.107D-01-0.181D-02 0.134D+00 0.881D+00
 Coeff:     -0.289D-06 0.115D-05 0.205D-04 0.339D-04 0.156D-03-0.101D-03
 Coeff:     -0.197D-02-0.107D-01-0.181D-02 0.134D+00 0.881D+00
 Gap=     0.344 Goal=   None    Shift=    0.000
 RMSDP=5.67D-09 MaxDP=1.70D-07 DE=-2.06D-11 OVMax= 3.91D-07

 SCF Done:  E(RM062X) =  -233.625211465     A.U. after   11 cycles
            NFock= 11  Conv=0.57D-08     -V/T= 2.0040
 KE= 2.326910609184D+02 PE=-9.390862996558D+02 EE= 2.753604646216D+02
 Leave Link  502 at Mon Mar 11 15:42:53 2019, MaxMem=   671088640 cpu:             515.6 elap:              25.9
 (Enter /shared/centos7/gaussian/g16/l801.exe)
 DoSCS=F DFT=T ScalE2(SS,OS)=  1.000000  1.000000
 Range of M.O.s used for correlation:     1   260
 NBasis=   260 NAE=    21 NBE=    21 NFC=     0 NFV=     0
 NROrb=    260 NOA=    21 NOB=    21 NVA=   239 NVB=   239

 **** Warning!!: The largest alpha MO coefficient is  0.40179587D+02

 Leave Link  801 at Mon Mar 11 15:42:53 2019, MaxMem=   671088640 cpu:               0.4 elap:               0.0
 (Enter /shared/centos7/gaussian/g16/l1101.exe)
 Using compressed storage, NAtomX=    15.
 Will process     16 centers per pass.
 Leave Link 1101 at Mon Mar 11 15:42:53 2019, MaxMem=   671088640 cpu:               6.1 elap:               0.3
 (Enter /shared/centos7/gaussian/g16/l1102.exe)
 Symmetrizing basis deriv contribution to polar:
 IMax=3 JMax=2 DiffMx= 0.00D+00
 Leave Link 1102 at Mon Mar 11 15:42:53 2019, MaxMem=   671088640 cpu:               0.5 elap:               0.0
 (Enter /shared/centos7/gaussian/g16/l1110.exe)
 Forming Gx(P) for the SCF density, NAtomX=    15.
 Integral derivatives from FoFJK, PRISM(SPDF).
 Do as many integral derivatives as possible in FoFJK.
 G2DrvN: MDV=     671087424.
 G2DrvN: will do    16 centers at a time, making    1 passes.
 Calling FoFCou, ICntrl=  3107 FMM=F I1Cent=   0 AccDes= 0.00D+00.
 FoFJK:  IHMeth= 1 ICntrl=    3107 DoSepK=F KAlg= 0 I1Cent=           0 FoldK=F
 IRaf=         0 NMat=       1 IRICut=       1 DoRegI=T DoRafI=F ISym2E= 0 IDoP0=0 IntGTp=1.
 FoFCou: FMM=F IPFlag=           0 FMFlag=      100000 FMFlg1=           0
         NFxFlg=           0 DoJE=F BraDBF=F KetDBF=F FulRan=T
         wScrn=  0.000000 ICntrl=      3107 IOpCl=  0 I1Cent=           0 NGrid=           0
         NMat0=    1 NMatS0=      1 NMatT0=    0 NMatD0=    1 NMtDS0=    0 NMtDT0=    0
 Symmetry not used in FoFCou.
 End of G2Drv F.D. properties file   721 does not exist.
 End of G2Drv F.D. properties file   722 does not exist.
 End of G2Drv F.D. properties file   788 does not exist.
 Leave Link 1110 at Mon Mar 11 15:43:48 2019, MaxMem=   671088640 cpu:            1102.7 elap:              55.2
 (Enter /shared/centos7/gaussian/g16/l1002.exe)
 Minotr:  Closed shell wavefunction.
          IDoAtm=111111111111111
          Direct CPHF calculation.
          Differentiating once with respect to nuclear coordinates.
          Requested convergence is 1.0D-08 RMS, and 1.0D-07 maximum.
          Secondary convergence is 1.0D-12 RMS, and 1.0D-12 maximum.
          NewPWx=T KeepS1=F KeepF1=F KeepIn=T MapXYZ=F SortEE=F KeepMc=T.
         4562 words used for storage of precomputed grid.
 Keep R1 ints in memory in canonical form, NReq=597923364.
 FoFCou: FMM=F IPFlag=           0 FMFlag=           0 FMFlg1=           0
         NFxFlg=           0 DoJE=F BraDBF=F KetDBF=F FulRan=T
         wScrn=  0.000000 ICntrl=       600 IOpCl=  0 I1Cent=           0 NGrid=           0
         NMat0=    1 NMatS0=  33930 NMatT0=    0 NMatD0=    1 NMtDS0=    0 NMtDT0=    0
 Symmetry not used in FoFCou.
 Two-electron integral symmetry not used.
          MDV=     671088640 using IRadAn=       1.
          Solving linear equations simultaneously, MaxMat=       0.
          There are    48 degrees of freedom in the 1st order CPHF.  IDoFFX=6 NUNeed=     0.
     42 vectors produced by pass  0 Test12= 1.05D-14 2.08D-09 XBig12= 6.89D-02 5.88D-02.
 AX will form    42 AO Fock derivatives at one time.
     42 vectors produced by pass  1 Test12= 1.05D-14 2.08D-09 XBig12= 3.05D-03 1.09D-02.
     42 vectors produced by pass  2 Test12= 1.05D-14 2.08D-09 XBig12= 6.46D-05 1.06D-03.
     42 vectors produced by pass  3 Test12= 1.05D-14 2.08D-09 XBig12= 4.46D-07 9.78D-05.
     42 vectors produced by pass  4 Test12= 1.05D-14 2.08D-09 XBig12= 2.64D-09 5.18D-06.
     42 vectors produced by pass  5 Test12= 1.05D-14 2.08D-09 XBig12= 1.23D-11 3.70D-07.
     19 vectors produced by pass  6 Test12= 1.05D-14 2.08D-09 XBig12= 4.67D-14 1.75D-08.
 InvSVY:  IOpt=1 It=  1 EMax= 1.78D-15
 Solved reduced A of dimension   271 with    42 vectors.
 End of Minotr F.D. properties file   721 does not exist.
 End of Minotr F.D. properties file   722 does not exist.
 End of Minotr F.D. properties file   788 does not exist.
 Leave Link 1002 at Mon Mar 11 15:44:49 2019, MaxMem=   671088640 cpu:            1201.0 elap:              60.4
 (Enter /shared/centos7/gaussian/g16/l601.exe)
 Copying SCF densities to generalized density rwf, IOpCl= 0 IROHF=0.

 **********************************************************************

            Population analysis using the SCF density.

 **********************************************************************

 Orbital symmetries:
       Occupied  (A) (A) (A) (A) (A) (A) (A) (A) (A) (A) (A) (A)
                 (A) (A) (A) (A) (A) (A) (A) (A) (A)
       Virtual   (A) (A) (A) (A) (A) (A) (A) (A) (A) (A) (A) (A)
                 (A) (A) (A) (A) (A) (A) (A) (A) (A) (A) (A) (A)
                 (A) (A) (A) (A) (A) (A) (A) (A) (A) (A) (A) (A)
                 (A) (A) (A) (A) (A) (A) (A) (A) (A) (A) (A) (A)
                 (A) (A) (A) (A) (A) (A) (A) (A) (A) (A) (A) (A)
                 (A) (A) (A) (A) (A) (A) (A) (A) (A) (A) (A) (A)
                 (A) (A) (A) (A) (A) (A) (A) (A) (A) (A) (A) (A)
                 (A) (A) (A) (A) (A) (A) (A) (A) (A) (A) (A) (A)
                 (A) (A) (A) (A) (A) (A) (A) (A) (A) (A) (A) (A)
                 (A) (A) (A) (A) (A) (A) (A) (A) (A) (A) (A) (A)
                 (A) (A) (A) (A) (A) (A) (A) (A) (A) (A) (A) (A)
                 (A) (A) (A) (A) (A) (A) (A) (A) (A) (A) (A) (A)
                 (A) (A) (A) (A) (A) (A) (A) (A) (A) (A) (A) (A)
                 (A) (A) (A) (A) (A) (A) (A) (A) (A) (A) (A) (A)
                 (A) (A) (A) (A) (A) (A) (A) (A) (A) (A) (A) (A)
                 (A) (A) (A) (A) (A) (A) (A) (A) (A) (A) (A) (A)
                 (A) (A) (A) (A) (A) (A) (A) (A) (A) (A) (A) (A)
                 (A) (A) (A) (A) (A) (A) (A) (A) (A) (A) (A) (A)
                 (A) (A) (A) (A) (A) (A) (A) (A) (A) (A) (A) (A)
                 (A) (A) (A) (A) (A) (A) (A) (A) (A) (A) (A)
 The electronic state is 1-A.
 Alpha  occ. eigenvalues --  -19.61883 -10.58475 -10.57200 -10.52259 -10.51896
 Alpha  occ. eigenvalues --   -1.15676  -0.88285  -0.78896  -0.76366  -0.66215
 Alpha  occ. eigenvalues --   -0.57209  -0.53943  -0.53432  -0.49720  -0.46117
 Alpha  occ. eigenvalues --   -0.45467  -0.44151  -0.41440  -0.40884  -0.37592
 Alpha  occ. eigenvalues --   -0.32738
 Alpha virt. eigenvalues --    0.01674   0.03002   0.03482   0.03958   0.05589
 Alpha virt. eigenvalues --    0.06606   0.06978   0.07604   0.07801   0.09522
 Alpha virt. eigenvalues --    0.10167   0.11183   0.12179   0.13180   0.13689
 Alpha virt. eigenvalues --    0.15496   0.18059   0.19590   0.21181   0.21799
 Alpha virt. eigenvalues --    0.22749   0.24521   0.25188   0.25611   0.26141
 Alpha virt. eigenvalues --    0.27208   0.27494   0.28555   0.29741   0.30458
 Alpha virt. eigenvalues --    0.31497   0.34302   0.36530   0.38603   0.40325
 Alpha virt. eigenvalues --    0.42697   0.44725   0.45123   0.49520   0.50393
 Alpha virt. eigenvalues --    0.51029   0.53032   0.53968   0.55596   0.56470
 Alpha virt. eigenvalues --    0.56654   0.57808   0.58920   0.59430   0.60701
 Alpha virt. eigenvalues --    0.62106   0.62340   0.63761   0.65734   0.67910
 Alpha virt. eigenvalues --    0.70259   0.70730   0.71810   0.74083   0.77105
 Alpha virt. eigenvalues --    0.80322   0.83183   0.86118   0.88974   0.89524
 Alpha virt. eigenvalues --    0.91546   0.95861   0.97285   0.98253   1.00250
 Alpha virt. eigenvalues --    1.03922   1.05488   1.07277   1.08075   1.10301
 Alpha virt. eigenvalues --    1.12262   1.13267   1.13958   1.17018   1.17335
 Alpha virt. eigenvalues --    1.19517   1.20950   1.22054   1.22935   1.24825
 Alpha virt. eigenvalues --    1.26198   1.29900   1.30120   1.31132   1.32787
 Alpha virt. eigenvalues --    1.34587   1.35537   1.37577   1.38873   1.39767
 Alpha virt. eigenvalues --    1.40993   1.42284   1.44590   1.46574   1.48092
 Alpha virt. eigenvalues --    1.49167   1.50857   1.52244   1.54201   1.56811
 Alpha virt. eigenvalues --    1.58777   1.61193   1.61954   1.62065   1.65839
 Alpha virt. eigenvalues --    1.68459   1.69546   1.75903   1.86401   2.05523
 Alpha virt. eigenvalues --    2.11578   2.11951   2.25240   2.37488   2.39953
 Alpha virt. eigenvalues --    2.41321   2.47891   2.54514   2.55482   2.59987
 Alpha virt. eigenvalues --    2.62468   2.66047   2.70917   2.73033   2.77720
 Alpha virt. eigenvalues --    2.82582   2.88754   2.90942   2.96092   2.97496
 Alpha virt. eigenvalues --    2.99080   3.00503   3.03311   3.04181   3.08562
 Alpha virt. eigenvalues --    3.10466   3.12982   3.13820   3.14917   3.17390
 Alpha virt. eigenvalues --    3.19665   3.21578   3.23711   3.26870   3.29914
 Alpha virt. eigenvalues --    3.31937   3.34531   3.36984   3.38023   3.38872
 Alpha virt. eigenvalues --    3.42363   3.43862   3.46723   3.49792   3.52629
 Alpha virt. eigenvalues --    3.54030   3.56855   3.58313   3.61676   3.61868
 Alpha virt. eigenvalues --    3.64909   3.70965   3.72525   3.75795   3.78025
 Alpha virt. eigenvalues --    3.81275   3.81893   3.85061   3.87707   3.90015
 Alpha virt. eigenvalues --    3.93305   3.95442   3.99091   4.00966   4.02054
 Alpha virt. eigenvalues --    4.03632   4.07810   4.08120   4.12914   4.17609
 Alpha virt. eigenvalues --    4.18802   4.19756   4.20853   4.21749   4.23376
 Alpha virt. eigenvalues --    4.25053   4.26527   4.29135   4.30332   4.32839
 Alpha virt. eigenvalues --    4.35568   4.37055   4.39593   4.44859   4.49942
 Alpha virt. eigenvalues --    4.50738   4.51519   4.55450   4.57056   4.60060
 Alpha virt. eigenvalues --    4.61395   4.65457   4.72879   4.82901   4.94127
 Alpha virt. eigenvalues --    5.19289   5.27587   5.29844   5.33803   5.41939
 Alpha virt. eigenvalues --    5.48185   5.53710   5.56228   5.59054   5.61026
 Alpha virt. eigenvalues --    5.61591   5.64338   5.66914   5.69680   5.84078
 Alpha virt. eigenvalues --    5.91626   6.23273   6.50647   6.73829   7.21133
 Alpha virt. eigenvalues --    7.23075   7.36743   7.73314   7.78548  24.33087
 Alpha virt. eigenvalues --   24.41833  24.45379  24.51791  50.20678
          Condensed to atoms (all electrons):
               1          2          3          4          5          6
     1  O    8.244192   0.230919  -0.128503  -0.128106   0.110729  -0.043087
     2  C    0.230919   5.313831   0.172564   0.320981  -0.107360   0.467085
     3  C   -0.128503   0.172564   5.283904  -0.123950   0.015704  -0.066271
     4  C   -0.128106   0.320981  -0.123950   5.180316  -0.020007  -0.023949
     5  C    0.110729  -0.107360   0.015704  -0.020007   4.986500  -0.010219
     6  H   -0.043087   0.467085  -0.066271  -0.023949  -0.010219   0.520573
     7  H   -0.003708  -0.033545   0.430093  -0.014520  -0.004051   0.005834
     8  H   -0.008185  -0.016705   0.391985   0.008597   0.005217  -0.007414
     9  H    0.009666  -0.043920   0.420024  -0.001341  -0.000984  -0.002257
    10  H    0.013621  -0.047498  -0.009859   0.430024   0.001573  -0.006480
    11  H   -0.005106  -0.028354   0.020010   0.397393  -0.001193  -0.006370
    12  H   -0.010588  -0.006450  -0.016184   0.398735  -0.000692   0.005989
    13  H   -0.051546  -0.003670   0.000483  -0.007802   0.447660  -0.001663
    14  H   -0.044495   0.000681  -0.001664   0.002201   0.421441   0.006206
    15  H   -0.059216   0.010959   0.000172   0.002645   0.429887   0.000202
               7          8          9         10         11         12
     1  O   -0.003708  -0.008185   0.009666   0.013621  -0.005106  -0.010588
     2  C   -0.033545  -0.016705  -0.043920  -0.047498  -0.028354  -0.006450
     3  C    0.430093   0.391985   0.420024  -0.009859   0.020010  -0.016184
     4  C   -0.014520   0.008597  -0.001341   0.430024   0.397393   0.398735
     5  C   -0.004051   0.005217  -0.000984   0.001573  -0.001193  -0.000692
     6  H    0.005834  -0.007414  -0.002257  -0.006480  -0.006370   0.005989
     7  H    0.504078  -0.028743  -0.028477   0.000258  -0.000186   0.002088
     8  H   -0.028743   0.545835  -0.024584   0.000203  -0.000285  -0.000005
     9  H   -0.028477  -0.024584   0.528920   0.000463   0.000124  -0.000536
    10  H    0.000258   0.000203   0.000463   0.532521  -0.022559  -0.032235
    11  H   -0.000186  -0.000285   0.000124  -0.022559   0.521619  -0.025440
    12  H    0.002088  -0.000005  -0.000536  -0.032235  -0.025440   0.526910
    13  H   -0.000084  -0.003342  -0.000154   0.000019   0.000015  -0.000027
    14  H    0.000271  -0.001215   0.000039  -0.000006   0.000019  -0.000001
    15  H   -0.000147   0.000396   0.000045   0.000015  -0.000038   0.000025
              13         14         15
     1  O   -0.051546  -0.044495  -0.059216
     2  C   -0.003670   0.000681   0.010959
     3  C    0.000483  -0.001664   0.000172
     4  C   -0.007802   0.002201   0.002645
     5  C    0.447660   0.421441   0.429887
     6  H   -0.001663   0.006206   0.000202
     7  H   -0.000084   0.000271  -0.000147
     8  H   -0.003342  -0.001215   0.000396
     9  H   -0.000154   0.000039   0.000045
    10  H    0.000019  -0.000006   0.000015
    11  H    0.000015   0.000019  -0.000038
    12  H   -0.000027  -0.000001   0.000025
    13  H    0.575427  -0.052821  -0.028047
    14  H   -0.052821   0.575317  -0.021818
    15  H   -0.028047  -0.021818   0.528862
 Mulliken charges:
               1
     1  O   -0.126584
     2  C   -0.229517
     3  C   -0.388508
     4  C   -0.421218
     5  C   -0.274206
     6  H    0.161820
     7  H    0.170840
     8  H    0.138244
     9  H    0.142973
    10  H    0.139941
    11  H    0.150349
    12  H    0.158410
    13  H    0.125552
    14  H    0.115845
    15  H    0.136059
 Sum of Mulliken charges =  -0.00000
 Mulliken charges with hydrogens summed into heavy atoms:
               1
     1  O   -0.126584
     2  C   -0.067697
     3  C    0.063549
     4  C    0.027482
     5  C    0.103250
 APT charges:
               1
     1  O   -0.069999
     2  C   -0.306614
     3  C   -1.085548
     4  C   -1.188015
     5  C   -1.202594
     6  H    0.358131
     7  H    0.344784
     8  H    0.347732
     9  H    0.441664
    10  H    0.450634
    11  H    0.383416
    12  H    0.340010
    13  H    0.331654
    14  H    0.327895
    15  H    0.526852
 Sum of APT charges =  -0.00000
 APT charges with hydrogens summed into heavy atoms:
               1
     1  O   -0.069999
     2  C    0.051517
     3  C    0.048631
     4  C   -0.013956
     5  C   -0.016193
 Electronic spatial extent (au):  <R**2>=            501.4196
 Charge=             -0.0000 electrons
 Dipole moment (field-independent basis, Debye):
    X=              0.0422    Y=              0.9840    Z=              0.8432  Tot=              1.2965
 Quadrupole moment (field-independent basis, Debye-Ang):
   XX=            -30.8133   YY=            -34.5545   ZZ=            -33.7825
   XY=              0.3859   XZ=              0.2440   YZ=             -0.6260
 Traceless Quadrupole moment (field-independent basis, Debye-Ang):
   XX=              2.2368   YY=             -1.5044   ZZ=             -0.7324
   XY=              0.3859   XZ=              0.2440   YZ=             -0.6260
 Octapole moment (field-independent basis, Debye-Ang**2):
  XXX=              8.8251  YYY=             -2.7361  ZZZ=             -1.0566  XYY=              1.0513
  XXY=             -1.3283  XXZ=             -0.1274  XZZ=              0.4216  YZZ=             -0.5079
  YYZ=              0.2680  XYZ=             -0.4102
 Hexadecapole moment (field-independent basis, Debye-Ang**3):
 XXXX=           -394.8639 YYYY=           -212.1441 ZZZZ=            -71.9185 XXXY=            -10.1533
 XXXZ=             -6.9425 YYYX=              0.7945 YYYZ=              0.2010 ZZZX=              2.1022
 ZZZY=             -0.6001 XXYY=           -101.0838 XXZZ=            -79.5333 YYZZ=            -48.3547
 XXYZ=              2.5313 YYXZ=             -1.9111 ZZXY=             -0.8617
 N-N= 1.974095626503D+02 E-N=-9.390863010930D+02  KE= 2.326910609184D+02
  Exact polarizability:   0.000   0.000   0.000   0.000   0.000   0.000
 Approx polarizability:  63.799  -0.230  60.710  -0.286   0.810  61.225
 No NMR shielding tensors so no spin-rotation constants.
 Leave Link  601 at Mon Mar 11 15:44:49 2019, MaxMem=   671088640 cpu:               4.6 elap:               0.3
 (Enter /shared/centos7/gaussian/g16/l701.exe)
 SCFChk:  SCF convergence  5.67D-09 required  1.00D-08
 ... and contract with generalized density number  0.
 Compute integral second derivatives.
 Entering OneElI...
 Calculate overlap and kinetic energy integrals
    NBasis = 285  MinDer = 2  MaxDer = 2
 Requested accuracy = 0.1000D-12
 PrmmSu-InSpLW:  IPartL=    0 NPrtUS=   20 NPrtUL=    1 DoSpLW=F IThBeg=    0 IThEnd=   19 NThAct=   20.
 PrsmSu:  NPrtUS=  20 ThrOK=T IAlg=1 NPAlg=1 LenDen=           0 ISkipM=0 DoSpLW=F IThBeg=    0 IThEnd=   19.
 Prism:   IPart=     0 DynPar=F LinDyn=F Incr=           2.
 PRISM was handed    33447337 working-precision words and  4094 shell-pairs
 PRISM was handed    33447337 working-precision words and  4094 shell-pairs
 PRISM was handed    33447337 working-precision words and  4094 shell-pairs
 PRISM was handed    33447337 working-precision words and  4094 shell-pairs
 PRISM was handed    33447337 working-precision words and  4094 shell-pairs
 PRISM was handed    33447337 working-precision words and  4094 shell-pairs
 PRISM was handed    33447337 working-precision words and  4094 shell-pairs
 PRISM was handed    33447337 working-precision words and  4094 shell-pairs
 PRISM was handed    33447337 working-precision words and  4094 shell-pairs
 PRISM was handed    33447337 working-precision words and  4094 shell-pairs
 PRISM was handed    33447337 working-precision words and  4094 shell-pairs
 PRISM was handed    33447337 working-precision words and  4094 shell-pairs
 PRISM was handed    33447337 working-precision words and  4094 shell-pairs
 PRISM was handed    33447337 working-precision words and  4094 shell-pairs
 PRISM was handed    33447337 working-precision words and  4094 shell-pairs
 PRISM was handed    33447337 working-precision words and  4094 shell-pairs
 PRISM was handed    33447337 working-precision words and  4094 shell-pairs
 PRISM was handed    33447337 working-precision words and  4094 shell-pairs
 PRISM was handed    33447337 working-precision words and  4094 shell-pairs
 PRISM was handed    33447337 working-precision words and  4094 shell-pairs
 IPart= 18 NShTot=         185 NBatch=          30 AvBLen=         6.2
 IPart=  0 NShTot=         235 NBatch=          56 AvBLen=         4.2
 IPart= 17 NShTot=         185 NBatch=          30 AvBLen=         6.2
 IPart= 19 NShTot=         185 NBatch=          30 AvBLen=         6.2
 IPart=  2 NShTot=         226 NBatch=          50 AvBLen=         4.5
 IPart=  3 NShTot=         225 NBatch=          50 AvBLen=         4.5
 IPart=  1 NShTot=         229 NBatch=          50 AvBLen=         4.6
 IPart=  5 NShTot=         212 NBatch=          41 AvBLen=         5.2
 IPart=  4 NShTot=         219 NBatch=          46 AvBLen=         4.8
 IPart=  8 NShTot=         207 NBatch=          36 AvBLen=         5.8
 IPart= 13 NShTot=         195 NBatch=          32 AvBLen=         6.1
 IPart= 11 NShTot=         199 NBatch=          35 AvBLen=         5.7
 IPart=  7 NShTot=         209 NBatch=          38 AvBLen=         5.5
 IPart= 14 NShTot=         193 NBatch=          31 AvBLen=         6.2
 IPart= 16 NShTot=         187 NBatch=          30 AvBLen=         6.2
 IPart=  6 NShTot=         210 NBatch=          39 AvBLen=         5.4
 IPart= 15 NShTot=         189 NBatch=          30 AvBLen=         6.3
 IPart=  9 NShTot=         206 NBatch=          36 AvBLen=         5.7
 IPart= 10 NShTot=         200 NBatch=          35 AvBLen=         5.7
 IPart= 12 NShTot=         198 NBatch=          34 AvBLen=         5.8
 PrSmSu:  NxtVal=             41.
 Entering OneElI...
 Calculate potential energy integrals
    NBasis = 285  MinDer = 2  MaxDer = 2
 Requested accuracy = 0.1000D-12
 PrmmSu-InSpLW:  IPartL=    0 NPrtUS=   20 NPrtUL=    1 DoSpLW=F IThBeg=    0 IThEnd=   19 NThAct=   20.
 PrsmSu:  NPrtUS=  20 ThrOK=T IAlg=1 NPAlg=1 LenDen=           0 ISkipM=0 DoSpLW=F IThBeg=    0 IThEnd=   19.
 Prism:   IPart=     0 DynPar=F LinDyn=F Incr=          29.
 PRISM was handed    33461174 working-precision words and  3923 shell-pairs
 PRISM was handed    33461174 working-precision words and  3923 shell-pairs
 PRISM was handed    33461174 working-precision words and  3923 shell-pairs
 PRISM was handed    33461174 working-precision words and  3923 shell-pairs
 PRISM was handed    33461174 working-precision words and  3923 shell-pairs
 PRISM was handed    33461174 working-precision words and  3923 shell-pairs
 PRISM was handed    33461174 working-precision words and  3923 shell-pairs
 PRISM was handed    33461174 working-precision words and  3923 shell-pairs
 PRISM was handed    33461174 working-precision words and  3923 shell-pairs
 PRISM was handed    33461174 working-precision words and  3923 shell-pairs
 PRISM was handed    33461174 working-precision words and  3923 shell-pairs
 PRISM was handed    33461174 working-precision words and  3923 shell-pairs
 PRISM was handed    33461174 working-precision words and  3923 shell-pairs
 PRISM was handed    33461174 working-precision words and  3923 shell-pairs
 PRISM was handed    33461174 working-precision words and  3923 shell-pairs
 PRISM was handed    33461174 working-precision words and  3923 shell-pairs
 PRISM was handed    33461174 working-precision words and  3923 shell-pairs
 PRISM was handed    33461174 working-precision words and  3923 shell-pairs
 PRISM was handed    33461174 working-precision words and  3923 shell-pairs
 PRISM was handed    33461174 working-precision words and  3923 shell-pairs
 IPart= 19 NShTot=        2625 NBatch=         175 AvBLen=        15.0
 IPart= 18 NShTot=        2625 NBatch=         175 AvBLen=        15.0
 IPart= 17 NShTot=        2640 NBatch=         176 AvBLen=        15.0
 IPart=  7 NShTot=        3015 NBatch=         201 AvBLen=        15.0
 IPart=  0 NShTot=        3420 NBatch=         228 AvBLen=        15.0
 IPart=  4 NShTot=        3180 NBatch=         212 AvBLen=        15.0
 IPart=  1 NShTot=        3375 NBatch=         225 AvBLen=        15.0
 IPart=  8 NShTot=        2970 NBatch=         198 AvBLen=        15.0
 IPart= 14 NShTot=        2745 NBatch=         183 AvBLen=        15.0
 IPart=  3 NShTot=        3255 NBatch=         217 AvBLen=        15.0
 IPart=  6 NShTot=        3060 NBatch=         204 AvBLen=        15.0
 IPart=  2 NShTot=        3285 NBatch=         219 AvBLen=        15.0
 IPart=  5 NShTot=        3090 NBatch=         206 AvBLen=        15.0
 IPart= 11 NShTot=        2850 NBatch=         190 AvBLen=        15.0
 IPart=  9 NShTot=        2940 NBatch=         196 AvBLen=        15.0
 IPart= 16 NShTot=        2655 NBatch=         177 AvBLen=        15.0
 IPart= 13 NShTot=        2760 NBatch=         184 AvBLen=        15.0
 IPart= 12 NShTot=        2805 NBatch=         187 AvBLen=        15.0
 IPart= 15 NShTot=        2685 NBatch=         179 AvBLen=        15.0
 IPart= 10 NShTot=        2865 NBatch=         191 AvBLen=        15.0
 PrSmSu:  NxtVal=            581.
 Polarizability after L701:
                1             2             3 
      1  0.000000D+00
      2  0.000000D+00  0.000000D+00
      3  0.000000D+00  0.000000D+00  0.000000D+00
 Dipole Derivatives after L701:
                 1             2             3             4             5 
      1   0.186165D+00  0.231460D+00  0.133155D+00 -0.461659D-01 -0.348333D-01
      2   0.538432D-01 -0.214704D+00 -0.666558D-01 -0.331598D-01 -0.248231D-01
      3   0.188818D-01 -0.164834D-01 -0.181458D+00  0.532926D-01 -0.577315D-01
                 6             7             8             9            10 
      1   0.177441D+00 -0.922706D+00  0.399205D+00 -0.184684D+00 -0.154773D+01
      2  -0.744972D-01  0.114427D+00 -0.145738D+01  0.239929D+00 -0.216311D+00
      3  -0.848854D+00 -0.782392D-01  0.636341D-02 -0.876553D+00  0.573652D-01
                11            12            13            14            15 
      1  -0.396128D+00 -0.578403D-01 -0.187941D+01 -0.385180D+00 -0.187744D+00
      2  -0.101234D+01 -0.298058D-01  0.215309D+00 -0.849642D+00  0.716353D-01
      3   0.288350D-01 -0.100397D+01  0.474109D-01  0.255517D-01 -0.878724D+00
                16            17            18            19            20 
      1   0.164442D+00 -0.550814D-02 -0.111329D+00  0.156253D+00 -0.220481D-01
      2  -0.632023D-02  0.188927D+00 -0.307874D-01 -0.570334D-01  0.195977D+00
      3   0.469335D-01 -0.100542D-01  0.721024D+00  0.487546D-01 -0.243102D-01
                21            22            23            24            25 
      1   0.283465D+00  0.262448D+00  0.732472D-01  0.527059D-01  0.679668D+00
      2  -0.609882D+00  0.699385D+00  0.619041D+00  0.222872D+00 -0.677261D+00
      3   0.682120D+00  0.920588D-01  0.534393D-01  0.161706D+00 -0.153789D+00
                26            27            28            29            30 
      1  -0.271312D+00 -0.261755D+00  0.105657D+01 -0.378276D+00 -0.477381D+00
      2   0.451598D+00  0.300126D+00  0.148421D+00  0.648786D-01 -0.548929D-01
      3   0.680523D-01  0.193726D+00 -0.192511D+00  0.939520D-01  0.230455D+00
                31            32            33            34            35 
      1   0.452858D-01  0.608074D+00 -0.163365D+00  0.258809D+00 -0.129968D-01
      2  -0.111649D+00  0.937078D+00 -0.232924D+00  0.578035D-01  0.122817D+00
      3   0.261399D-01 -0.125540D+00  0.167883D+00  0.704500D-01 -0.145160D-01
                36            37            38            39            40 
      1   0.709934D+00  0.316352D+00  0.808595D+00 -0.251096D+00  0.254766D+00
      2   0.315650D+00  0.369002D-01  0.473317D+00 -0.144797D+00  0.223893D-01
      3   0.638404D+00  0.826701D-02 -0.160125D+00  0.205292D+00  0.505556D-01
                41            42            43            44            45 
      1   0.123385D+00  0.793812D+00  0.101526D+01 -0.737685D+00 -0.455318D+00
      2   0.120148D+00 -0.669356D-01 -0.246744D+00  0.385115D+00  0.160965D+00
      3   0.179136D-01  0.608771D+00 -0.955699D-01  0.114653D+00  0.180178D+00
 Hessian after L701:
                1             2             3             4             5 
      1  0.172820D+01
      2  0.647835D+00  0.111436D+02
      3  0.100207D+01 -0.156286D+01  0.122545D+02
      4 -0.214097D+01 -0.243253D+01 -0.250134D+01  0.136110D+02
      5 -0.240554D+01 -0.600432D+01  0.146929D+01  0.995885D+00  0.158827D+02
      6 -0.240638D+01  0.137721D+01 -0.611979D+01  0.127234D+01 -0.928680D+00
      7  0.105271D-01 -0.308770D+00  0.172660D+00 -0.549897D+01 -0.613466D+00
      8 -0.247031D+00  0.552880D+00 -0.215267D+00 -0.573453D+00 -0.111966D+01
      9  0.956695D-01 -0.980193D-01 -0.172982D+00  0.206058D+00 -0.981868D+00
     10  0.779573D+00  0.271891D+00 -0.468570D-01 -0.253855D+01  0.208546D+01
     11  0.119754D+00 -0.715790D-01 -0.462270D-01  0.208351D+01 -0.443565D+01
     12 -0.799312D-01 -0.611953D-01 -0.105472D+00  0.846537D+00  0.476031D+00
     13 -0.562892D+00  0.219779D+01  0.158194D+01  0.454817D+00 -0.580302D-01
     14  0.218914D+01 -0.608041D+01  0.673150D+00 -0.101947D+00 -0.972028D-01
     15  0.158285D+01  0.692340D+00 -0.655049D+01 -0.965806D-01  0.320739D-01
     16 -0.348308D-01  0.959258D-01  0.772544D-01 -0.427068D+01  0.620289D-03
     17  0.820725D-01 -0.245953D-01 -0.963352D-01  0.302512D-02 -0.428404D+01
     18  0.274051D-01 -0.102296D+00  0.302115D+00  0.212872D+00 -0.410116D-01
     19 -0.200982D-02 -0.585211D-01  0.147359D-01  0.501015D-01 -0.500174D-02
     20 -0.526172D-01  0.467362D-01 -0.206077D-01 -0.943899D-02  0.269054D-01
     21  0.432517D-01 -0.661384D-01 -0.109058D-01  0.191167D-01  0.247588D-02
     22 -0.212813D-01  0.274248D-01  0.846982D-02  0.294222D-01  0.283525D-01
     23 -0.146674D-01  0.518077D-01 -0.955921D-02 -0.577292D-01  0.235468D-02
     24 -0.212275D-03  0.690941D-02 -0.247498D-01  0.335362D-01  0.371036D-01
     25  0.712256D-01 -0.125639D+00 -0.441266D-01  0.654182D-02  0.666079D-02
     26 -0.120200D+00  0.599837D-01  0.453260D-01  0.734540D-01  0.319675D-01
     27 -0.457347D-01  0.467349D-01 -0.382091D-01 -0.134935D-01 -0.850751D-02
     28  0.222117D+00 -0.297899D-01 -0.698155D-01 -0.515599D-01  0.652785D-01
     29 -0.333006D-01 -0.655035D-01  0.686900D-02 -0.885664D-02  0.759263D-01
     30 -0.780334D-01  0.609133D-02 -0.457026D-01  0.690839D-02  0.102756D-01
     31  0.620730D-01  0.388585D-01 -0.388877D-02  0.460050D-01 -0.527822D-01
     32  0.102990D+00  0.914722D-02 -0.982099D-02  0.392706D-01 -0.343906D-02
     33 -0.296165D-01 -0.149954D-01 -0.435571D-01 -0.102663D-01 -0.493047D-01
     34  0.614470D-01  0.252191D-01  0.161602D-01  0.569198D-01  0.324874D-02
     35  0.101207D-01 -0.238461D-01  0.113932D-02  0.144798D-02 -0.796510D-02
     36  0.665695D-01  0.159794D-01 -0.199463D-02  0.364618D-01 -0.143022D-01
     37 -0.982889D-01 -0.556191D-01 -0.161255D+00  0.635269D-01  0.222934D-01
     38 -0.375536D-02  0.298304D+00 -0.201708D+00  0.711034D-01  0.192074D-02
     39 -0.126198D+00 -0.185215D+00  0.112091D+00 -0.239113D-01 -0.991350D-02
     40 -0.762712D-01 -0.150976D+00  0.132046D-01  0.490185D-01 -0.172466D-01
     41 -0.986991D-01 -0.217028D-01 -0.633708D-01 -0.134620D-01 -0.405235D-01
     42  0.453011D-01 -0.887613D-01  0.370738D+00  0.630384D-01 -0.871348D-02
     43  0.138031D-02 -0.143105D+00 -0.592187D-01  0.133418D+00 -0.557326D-01
     44 -0.176102D+00  0.129502D+00  0.299769D-01 -0.702785D-01 -0.289897D-01
     45 -0.970079D-01  0.342142D-01  0.744250D-01 -0.512832D-01  0.150514D-01
                6             7             8             9            10 
      6  0.184536D+02
      7  0.195892D+00  0.127806D+02
      8 -0.937933D+00  0.715074D+00  0.100823D+02
      9 -0.539490D+01 -0.234296D+00  0.397423D+00  0.137802D+02
     10  0.827094D+00  0.558774D-01  0.424652D-01  0.108577D-01  0.104366D+02
     11  0.454958D+00  0.168821D+00  0.208499D+00  0.389240D-01 -0.149123D+01
     12 -0.557923D+01 -0.131789D-01  0.550813D-02 -0.185949D-01 -0.377207D+00
     13 -0.152116D-01  0.202347D+00 -0.249690D+00  0.101141D-01  0.186983D+00
     14  0.361149D-01 -0.366832D+00 -0.877078D-01 -0.123066D-02  0.285324D-01
     15 -0.144645D+00  0.873669D-03  0.513451D-02 -0.277990D+00  0.131593D-01
     16  0.157132D+00  0.144045D+00  0.154727D-01 -0.141831D-01 -0.103871D-01
     17 -0.215455D-01  0.230793D-01  0.397877D-02  0.151456D+00 -0.139473D-01
     18 -0.123805D+01 -0.165342D-01  0.157702D+00  0.217267D-01  0.215933D-01
     19 -0.205912D-02 -0.369651D+01 -0.171121D-01  0.272522D+00  0.111243D-02
     20  0.934397D-01 -0.272478D-01 -0.373654D+01 -0.363800D+00  0.236784D-02
     21  0.138301D-01  0.208323D+00 -0.165971D+00 -0.109199D+01 -0.512879D-04
     22  0.373888D-01 -0.222351D+01  0.110483D+01  0.483579D+00  0.169705D-01
     23  0.391121D-01  0.129894D+01 -0.281510D+01  0.427015D+00  0.861033D-01
     24  0.110303D-01  0.509114D+00  0.385148D+00 -0.352534D+01  0.832248D-02
     25 -0.144547D-01 -0.189640D+01 -0.839897D+00 -0.798947D+00 -0.172015D-01
     26 -0.283889D-01 -0.956209D+00 -0.317321D+01  0.456902D+00 -0.120714D-01
     27  0.392340D-01 -0.790420D+00  0.401594D+00 -0.322083D+01 -0.561404D-02
     28  0.242945D-01  0.350259D-01  0.212860D-01 -0.141682D-01 -0.176988D+01
     29  0.289473D-01  0.129131D-01 -0.128094D-01 -0.664931D-02 -0.645842D+00
     30  0.477271D-01 -0.266812D-01 -0.134952D-01 -0.975327D-02 -0.921375D+00
     31 -0.437706D-02 -0.465977D-01  0.538396D-01 -0.593502D-02 -0.361400D+01
     32 -0.551314D-01  0.513029D-01  0.146876D+00 -0.178263D-01 -0.342285D+00
     33  0.185390D-01 -0.847941D-02 -0.258851D-01 -0.514989D-01  0.806496D-01
     34 -0.510184D-01 -0.770485D-02 -0.623550D-02 -0.192252D-02 -0.357815D+01
     35 -0.637822D-01  0.295885D-02  0.937961D-02  0.413258D-02 -0.122665D-01
     36 -0.228205D-01  0.117844D-01  0.972849D-02  0.142841D-01  0.368486D+00
     37  0.761125D-02  0.107603D+00  0.434544D-02 -0.125815D-01 -0.163686D-01
     38  0.150275D-03  0.413430D-01 -0.490027D-01 -0.557506D-02  0.159401D-02
     39 -0.268084D-01 -0.355506D-01  0.113537D-02 -0.397396D-01 -0.205558D-03
     40  0.122816D-01  0.608440D-02 -0.366226D-02  0.856571D-02  0.322733D-01
     41 -0.483758D-02 -0.959702D-02 -0.122631D-01 -0.613432D-02  0.114736D-01
     42 -0.141364D-01  0.367507D-01 -0.858233D-02 -0.120317D-02  0.316555D-01
     43 -0.405326D-01  0.275297D-01 -0.202337D-01 -0.533319D-02  0.351977D-01
     44  0.103704D-01 -0.323063D-01  0.234968D-02  0.525208D-02 -0.122442D-01
     45 -0.435935D-01 -0.102576D-01  0.375944D-02 -0.113600D-01 -0.105087D-01
               11            12            13            14            15 
     11  0.125733D+02
     12 -0.178900D+00  0.134737D+02
     13  0.304023D-01  0.191462D-01  0.925468D+01
     14 -0.103208D+00  0.600731D-02 -0.140276D+01  0.144444D+02
     15  0.468704D-02 -0.112752D+00 -0.114357D+01 -0.601610D+00  0.152053D+02
     16 -0.111125D-01 -0.156899D-01 -0.105632D-01 -0.754683D-02 -0.108925D-01
     17  0.936874D-02 -0.137442D-01 -0.238720D-02 -0.133681D-01  0.195734D-02
     18  0.822741D-02  0.859852D-01 -0.326061D-01  0.185701D-01  0.298707D-01
     19  0.133435D-01 -0.528826D-02  0.117245D-01 -0.274682D-01  0.172678D-01
     20 -0.199215D-02 -0.163236D-02 -0.144195D-01 -0.124416D-02 -0.807588D-02
     21 -0.192650D-01  0.111649D-01  0.249344D-01 -0.337831D-01  0.147309D-02
     22  0.847264D-01  0.880549D-02 -0.406542D-01 -0.201053D-01  0.629047D-02
     23  0.724423D-01  0.128653D-01 -0.646851D-01  0.890124D-01  0.307130D-02
     24  0.145603D-01 -0.387364D-01 -0.492930D-02  0.169446D-01 -0.479970D-01
     25 -0.285131D-01 -0.498317D-02  0.201225D-01 -0.326260D-01 -0.873176D-02
     26  0.355452D-01  0.916799D-02 -0.191558D-01  0.321211D-02  0.474693D-02
     27  0.198968D-01 -0.229424D-01 -0.505064D-02  0.745443D-02 -0.988132D-02
     28 -0.766674D+00 -0.979093D+00  0.235155D-01 -0.255363D-02 -0.708935D-02
     29 -0.335218D+01  0.323862D+00 -0.115612D-02 -0.870393D-02  0.206658D-02
     30  0.362107D+00 -0.310597D+01 -0.640950D-02  0.200531D-02 -0.731625D-02
     31 -0.167810D+00  0.360520D-01  0.140592D-01  0.137958D-01 -0.132879D-02
     32 -0.126387D+01 -0.636527D+00  0.223973D-01  0.249012D-03 -0.533797D-02
     33 -0.620605D+00 -0.342911D+01 -0.245581D-02 -0.217626D-02 -0.119711D-01
     34 -0.302866D-01  0.549934D+00  0.156244D-01  0.324358D-02  0.831413D-02
     35 -0.364559D+01  0.534687D-01  0.513583D-02 -0.117746D-01  0.118303D-02
     36 -0.437186D-01 -0.114168D+01  0.168511D-01 -0.153637D-03 -0.470218D-02
     37 -0.814770D-02  0.314261D-02 -0.367067D+01  0.808891D+00 -0.308041D+00
     38 -0.165595D-02 -0.109845D-02  0.607753D+00 -0.152006D+01 -0.834283D+00
     39  0.108765D-03 -0.224448D-03 -0.240196D+00 -0.842751D+00 -0.353936D+01
     40  0.964216D-02  0.167141D-01 -0.368923D+01  0.492735D-01  0.620690D+00
     41 -0.153137D-01  0.349080D-02  0.173049D-01 -0.373514D+01  0.216688D+00
     42  0.207345D-02 -0.463107D-02  0.423068D+00  0.240475D+00 -0.113689D+01
     43 -0.642065D-02 -0.495969D-02 -0.220986D+01 -0.113103D+01 -0.673211D+00
     44 -0.813463D-02  0.269636D-02 -0.106850D+01 -0.287809D+01  0.485359D+00
     45  0.317358D-02 -0.114717D-01 -0.625626D+00  0.480983D+00 -0.339264D+01
               16            17            18            19            20 
     16  0.416547D+01
     17 -0.536126D-01  0.437566D+01
     18 -0.225249D+00 -0.906801D-02  0.674085D+00
     19 -0.182726D-01 -0.650620D-02  0.163871D-01  0.358092D+01
     20 -0.608444D-02 -0.151428D-02 -0.518821D-01  0.107656D+00  0.351851D+01
     21  0.127527D-01 -0.420352D-01  0.796361D-01 -0.302974D+00  0.455416D+00
     22  0.141952D-01 -0.930851D-02 -0.329814D-02  0.193874D-01 -0.240284D-01
     23 -0.126691D-01 -0.283975D-01  0.208188D-01 -0.388115D-01  0.608510D-01
     24  0.803978D-02  0.252189D-01 -0.162073D-02 -0.118634D+00 -0.604004D-01
     25  0.318431D-02 -0.324152D-02  0.142173D-01  0.431850D-01  0.669255D-02
     26 -0.201810D-02  0.267113D-02 -0.993398D-02  0.168100D-01  0.689994D-01
     27 -0.183518D-02  0.146526D-02 -0.360797D-02  0.103071D+00 -0.364498D-01
     28 -0.243801D-01 -0.662013D-02 -0.529323D-02  0.295323D-02  0.972547D-02
     29 -0.906126D-02  0.109858D-01 -0.763751D-02  0.426623D-02  0.700396D-03
     30 -0.172692D-01 -0.235149D-02  0.645090D-03 -0.547985D-02 -0.688665D-02
     31  0.743019D-03 -0.192030D-01 -0.128611D-01 -0.172820D-02  0.443411D-03
     32 -0.156079D-01 -0.115608D-01 -0.395729D-02  0.289621D-03  0.514797D-02
     33 -0.101384D-01 -0.173514D-01 -0.695585D-03 -0.249458D-03 -0.267380D-02
     34  0.103938D-02  0.975977D-02  0.527454D-01 -0.426686D-02  0.171586D-01
     35  0.867816D-02 -0.159805D-01  0.233761D-01  0.131137D-01  0.185445D-01
     36  0.415603D-01  0.198376D-01  0.726957D-01  0.293424D-02  0.793686D-02
     37 -0.176696D-02 -0.621591D-03 -0.469730D-02  0.662938D-02 -0.300302D-02
     38  0.145681D-02  0.140771D-02 -0.125614D-01  0.379468D-02 -0.534160D-02
     39  0.260944D-03  0.404237D-04  0.578977D-02  0.373207D-03  0.316262D-03
     40  0.343843D-01  0.432585D-03 -0.263052D-01  0.391761D-02 -0.440636D-02
     41 -0.307925D-03 -0.227720D-01  0.399906D-04 -0.272394D-02 -0.931038D-03
     42  0.431854D-02  0.725722D-03 -0.357761D-01  0.809404D-02 -0.539333D-02
     43  0.782491D-02 -0.292124D-02 -0.183759D-01  0.285160D-02 -0.279835D-02
     44 -0.413296D-02 -0.184520D-02  0.961265D-02 -0.312940D-02  0.116963D-02
     45 -0.606210D-02  0.173000D-02  0.720064D-02 -0.700590D-03  0.693778D-03
               21            22            23            24            25 
     21  0.114578D+01
     22 -0.801582D-01  0.230551D+01
     23 -0.603421D-01 -0.119272D+01  0.249757D+01
     24 -0.576392D-01 -0.460946D+00 -0.442728D+00  0.363217D+01
     25  0.725180D-01 -0.897306D-01 -0.546228D-02  0.261458D-01  0.185516D+01
     26 -0.421087D-01 -0.253387D-01  0.626307D-01  0.125044D-01  0.103401D+01
     27 -0.852222D-01 -0.296229D-02  0.828086D-02  0.566320D-01  0.762435D+00
     28 -0.184680D-01  0.129578D-01  0.128526D-01  0.971913D-03 -0.119610D-01
     29 -0.463867D-02  0.392038D-02  0.124156D-02 -0.326857D-03  0.282686D-02
     30  0.810243D-02 -0.439431D-02 -0.328421D-02 -0.309882D-02  0.212267D-02
     31 -0.297899D-03 -0.456270D-03 -0.265258D-02  0.587181D-03 -0.174437D-02
     32 -0.125160D-01  0.696524D-02  0.359064D-02  0.246093D-02 -0.956191D-02
     33  0.298401D-02 -0.165258D-02 -0.203112D-02 -0.361617D-03  0.126817D-02
     34 -0.663855D-02  0.279476D-02  0.560159D-02  0.247521D-02 -0.406100D-02
     35 -0.999726D-02  0.463637D-02  0.324192D-02  0.247265D-02 -0.332547D-02
     36 -0.214497D-01  0.917808D-02  0.906936D-02  0.224001D-02 -0.857993D-02
     37  0.101216D-01 -0.182999D-01  0.326434D-02  0.675069D-03  0.655332D-02
     38  0.840725D-02  0.861592D-02 -0.121415D-01 -0.471553D-02  0.744849D-02
     39 -0.512039D-02  0.497319D-02  0.300431D-02  0.197570D-02 -0.499657D-02
     40  0.920117D-02 -0.532150D-02 -0.334380D-02 -0.140332D-02  0.672464D-02
     41 -0.312816D-02  0.289700D-02 -0.162282D-03  0.846504D-03 -0.290427D-02
     42  0.125811D-01 -0.591406D-02 -0.981840D-02 -0.269678D-02  0.942922D-02
     43  0.836858D-02 -0.198430D-02 -0.140128D-01 -0.374304D-02  0.839779D-02
     44 -0.637538D-02 -0.865132D-03  0.110571D-01  0.400118D-02 -0.646539D-02
     45 -0.322654D-02  0.640008D-03  0.452587D-02 -0.180439D-02 -0.331641D-02
               26            27            28            29            30 
     26  0.288067D+01
     27 -0.449169D+00  0.329573D+01
     28  0.224114D-01  0.415800D-02  0.147241D+01
     29  0.972315D-02  0.119443D-02  0.586798D+00  0.331187D+01
     30 -0.734498D-02 -0.963589D-02  0.968398D+00 -0.280128D+00  0.317608D+01
     31 -0.456986D-03 -0.473113D-03  0.860281D-02  0.815696D-01 -0.602988D-02
     32  0.155419D-01  0.406942D-02  0.630590D-01 -0.420484D-01 -0.651452D-02
     33 -0.135077D-02 -0.313523D-02  0.106860D-01 -0.321256D-01  0.532663D-01
     34  0.171698D-02  0.122272D-02  0.608708D-01  0.926565D-02  0.942882D-01
     35  0.328106D-02  0.403910D-02  0.200559D-01  0.738083D-01 -0.590726D-01
     36  0.111574D-01  0.545059D-02  0.840886D-01 -0.309619D-01 -0.101684D+00
     37 -0.332292D-02 -0.217109D-02  0.520497D-02 -0.509978D-04 -0.199146D-02
     38 -0.424818D-02 -0.239922D-02  0.792829D-02 -0.205594D-02 -0.294729D-02
     39  0.170461D-02 -0.395674D-03 -0.335417D-02  0.426506D-03  0.213656D-03
     40 -0.445624D-02 -0.376852D-03  0.590919D-02 -0.821410D-03 -0.870345D-03
     41 -0.276885D-05 -0.350554D-03  0.104306D-02 -0.133365D-02 -0.168236D-03
     42 -0.512753D-02 -0.325201D-02  0.817884D-02 -0.171803D-02 -0.323130D-02
     43 -0.517198D-02 -0.275595D-02  0.821020D-02 -0.247117D-02 -0.318288D-02
     44  0.324075D-02  0.214706D-02 -0.480100D-02  0.374689D-03  0.171429D-02
     45  0.191455D-02  0.648702D-04 -0.349411D-02  0.820446D-03  0.359698D-03
               31            32            33            34            35 
     31  0.346780D+01
     32  0.338429D-01  0.112801D+01
     33  0.113192D-01  0.657114D+00  0.351589D+01
     34  0.578861D-01  0.262193D-01 -0.368333D-01  0.332602D+01
     35  0.159295D-01  0.676549D-02  0.113062D+00 -0.684491D-01  0.359230D+01
     36 -0.139301D-01  0.814765D-01 -0.468871D-01 -0.632873D+00 -0.706713D-01
     37  0.169668D-02  0.574009D-02 -0.133314D-02  0.283779D-02  0.122796D-02
     38  0.331153D-02  0.905099D-02 -0.275705D-02  0.512861D-02  0.933393D-04
     39 -0.882669D-03 -0.328998D-02 -0.323970D-03 -0.744992D-03 -0.209676D-03
     40  0.252017D-02  0.655529D-02 -0.152629D-03  0.270217D-02  0.724875D-03
     41  0.209543D-02  0.144717D-02 -0.140751D-03  0.979672D-03 -0.112954D-02
     42  0.339632D-02  0.918859D-02 -0.293866D-02  0.563976D-02  0.703819D-03
     43  0.314149D-02  0.882237D-02 -0.274554D-02  0.604178D-02  0.112751D-04
     44 -0.781884D-03 -0.491261D-02  0.122072D-02 -0.257050D-02 -0.111967D-02
     45 -0.135026D-02 -0.338807D-02 -0.195032D-03 -0.748288D-03  0.155260D-03
               36            37            38            39            40 
     36  0.124468D+01
     37  0.439771D-02  0.339867D+01
     38  0.739596D-02 -0.819770D+00  0.135685D+01
     39 -0.284252D-02  0.434847D+00  0.844982D+00  0.356231D+01
     40  0.524730D-02  0.155928D+00  0.596739D-02 -0.108092D-02  0.343619D+01
     41  0.129000D-02 -0.227819D-01  0.397067D-01  0.201271D+00  0.985452D-01
     42  0.786174D-02  0.439330D-01  0.189288D+00 -0.141974D+00 -0.714697D+00
     43  0.782443D-02  0.567407D-01  0.580797D-01 -0.333276D-02  0.351661D-01
     44 -0.406392D-02  0.675550D-01 -0.112827D+00 -0.116110D-01  0.137714D-01
     45 -0.314691D-02 -0.126580D-01  0.178206D-01  0.744102D-01  0.589819D-01
               41            42            43            44            45 
     41  0.377937D+01
     42 -0.278004D+00  0.100717D+01
     43  0.161373D-01  0.378073D-01  0.188595D+01
     44  0.307538D-01 -0.363368D-01  0.130085D+01  0.285747D+01
     45 -0.674911D-01 -0.516223D-01  0.763391D+00 -0.493963D+00  0.336260D+01
 Leave Link  701 at Mon Mar 11 15:44:49 2019, MaxMem=   671088640 cpu:               6.5 elap:               0.3
 (Enter /shared/centos7/gaussian/g16/l702.exe)
 L702 exits ... SP integral derivatives will be done elsewhere.
 Leave Link  702 at Mon Mar 11 15:44:49 2019, MaxMem=   671088640 cpu:               0.4 elap:               0.0
 (Enter /shared/centos7/gaussian/g16/l703.exe)
 Integral derivatives from FoFJK, PRISM(SPDF).
 Compute integral second derivatives, UseDBF=F ICtDFT=           0.
 ICntrl=    100147.
 Calling FoFJK, ICntrl=    100147 FMM=F ISym2X=0 I1Cent= 0 IOpClX= 0 NMat=1 NMatS=1 NMatT=0.
 FoFJK:  IHMeth= 1 ICntrl=  100147 DoSepK=F KAlg= 0 I1Cent=           0 FoldK=F
 IRaf=         0 NMat=       1 IRICut=       1 DoRegI=T DoRafI=F ISym2E= 0 IDoP0=0 IntGTp=1.
 FoFCou: FMM=F IPFlag=           0 FMFlag=      100000 FMFlg1=         800
         NFxFlg=           0 DoJE=F BraDBF=F KetDBF=F FulRan=T
         wScrn=  0.000000 ICntrl=    100147 IOpCl=  0 I1Cent=           0 NGrid=           0
         NMat0=    1 NMatS0=      1 NMatT0=    0 NMatD0=    1 NMtDS0=    0 NMtDT0=    0
 Symmetry not used in FoFCou.
 FoFCou:  KetSym=F NOpSet=  1 NOpAb=1 NOp=  1.
 FoFCou:  CnvScl= 1.00D+00 Thresh= 1.00D-08 IAcrcy=      12.
 PrismS was handed   670730509 working-precision words and  4011 shell-pairs
 FoFCou: LinMIO=F DoNuc=F BraDBF=F KetDBF=F HaveP=T PDBF=F HaveZ=T HaveW=F
         NIJTC =      15 NIJTAt=       0 NIJTCD=       0 NIJTT =      15
         IJTBeg=       1 IJTEnd=      15 KLTBeg=       1 KLTEnd=      15
         IPTBeg=       1 IPTEnd=      15 IPTBCv=       1 IPTECv=      15
         IZTBeg=       1 IZTEnd=      15 IZTBCv=       1 IZTECv=      15
         IWTBeg=      16 IWTEnd=      15 IWTBCv=      16 IWTECv=      15
         INTBeg=       1 INTEnd=       0 IFTBCv=       1 IFTECv=      15
 NCel replicated for PrismC:     1
 CoulSu-InSpLW:  IPartL=    0 NPrtUS=   20 NPrtUL=    1 DoSpLW=F IThBeg=    0 IThEnd=   19 NThAct=   20.
 CoulSu:  IncDef=  1024 NBBP=        8046066 NTPThr=   100 NPartT=   20 Incr=        1024 LDynOK=F GPUOK=T.
 CoulSu:  NPrtUS=  20 ThrOK=T IAlg=1 NPAlg=1 LenDen=           0 LWGrdD=           0 DoCopy=F ISkipM=0
          DoSpLW=F IThBeg=    0 IThEnd=   19.
 Enter PrismC:  IPart=  0 JobTyp=22 DoJE=F Cont=F.
 PrismC:  IPart=     0 DynPar=T LinDyn=F Incr=        1024 UseFst=F UseS4=T ISplat=2.
 PrismC was handed    33463866 working-precision words and  4011 shell-pairs
 Enter PrismC:  IPart=  7 JobTyp=22 DoJE=F Cont=F.
 Enter PrismC:  IPart= 10 JobTyp=22 DoJE=F Cont=F.
 Enter PrismC:  IPart= 18 JobTyp=22 DoJE=F Cont=F.
 PrismC:  IPart=     7 DynPar=T LinDyn=F Incr=        1024 UseFst=F UseS4=T ISplat=2.
 PrismC:  IPart=    18 DynPar=T LinDyn=F Incr=        1024 UseFst=F UseS4=T ISplat=2.
 PrismC:  IPart=    10 DynPar=T LinDyn=F Incr=        1024 UseFst=F UseS4=T ISplat=2.
 PrismC was handed    33463866 working-precision words and  4011 shell-pairs
 Enter PrismC:  IPart=  9 JobTyp=22 DoJE=F Cont=F.
 Enter PrismC:  IPart= 15 JobTyp=22 DoJE=F Cont=F.
 PrismC was handed    33463866 working-precision words and  4011 shell-pairs
 PrismC was handed    33463866 working-precision words and  4011 shell-pairs
 Enter PrismC:  IPart=  5 JobTyp=22 DoJE=F Cont=F.
 PrismC:  IPart=    15 DynPar=T LinDyn=F Incr=        1024 UseFst=F UseS4=T ISplat=2.
 PrismC was handed    33463866 working-precision words and  4011 shell-pairs
 PrismC:  IPart=     9 DynPar=T LinDyn=F Incr=        1024 UseFst=F UseS4=T ISplat=2.
 PrismC was handed    33463866 working-precision words and  4011 shell-pairs
 PrismC:  IPart=     5 DynPar=T LinDyn=F Incr=        1024 UseFst=F UseS4=T ISplat=2.
 PrismC was handed    33463866 working-precision words and  4011 shell-pairs
 Enter PrismC:  IPart= 11 JobTyp=22 DoJE=F Cont=F.
 PrismC:  IPart=    11 DynPar=T LinDyn=F Incr=        1024 UseFst=F UseS4=T ISplat=2.
 PrismC was handed    33463866 working-precision words and  4011 shell-pairs
 Enter PrismC:  IPart= 17 JobTyp=22 DoJE=F Cont=F.
 PrismC:  IPart=    17 DynPar=T LinDyn=F Incr=        1024 UseFst=F UseS4=T ISplat=2.
 PrismC was handed    33463866 working-precision words and  4011 shell-pairs
 Enter PrismC:  IPart=  8 JobTyp=22 DoJE=F Cont=F.
 Enter PrismC:  IPart=  6 JobTyp=22 DoJE=F Cont=F.
 Enter PrismC:  IPart=  1 JobTyp=22 DoJE=F Cont=F.
 Enter PrismC:  IPart=  2 JobTyp=22 DoJE=F Cont=F.
 PrismC:  IPart=     1 DynPar=T LinDyn=F Incr=        1024 UseFst=F UseS4=T ISplat=2.
 PrismC:  IPart=     6 DynPar=T LinDyn=F Incr=        1024 UseFst=F UseS4=T ISplat=2.
 PrismC was handed    33463866 working-precision words and  4011 shell-pairs
 PrismC:  IPart=     8 DynPar=T LinDyn=F Incr=        1024 UseFst=F UseS4=T ISplat=2.
 PrismC was handed    33463866 working-precision words and  4011 shell-pairs
 PrismC was handed    33463866 working-precision words and  4011 shell-pairs
[...]
 ! D21   D(3,2,4,12)            59.4633         -DE/DX =    0.0                 !
 ! D22   D(6,2,4,10)            60.2911         -DE/DX =    0.0                 !
 ! D23   D(6,2,4,11)           -60.3766         -DE/DX =    0.0                 !
 ! D24   D(6,2,4,12)          -179.8198         -DE/DX =    0.0                 !
 --------------------------------------------------------------------------------
 GradGradGradGradGradGradGradGradGradGradGradGradGradGradGradGradGradGrad

 Leave Link  103 at Mon Mar 11 15:49:52 2019, MaxMem=   671088640 cpu:               0.4 elap:               0.1
 (Enter /shared/centos7/gaussian/g16/l9999.exe)

 ----------------------------------------------------------------------

 Electric dipole moment (input orientation):
 (Debye = 10**-18 statcoulomb cm , SI units = C m)
                  (au)            (Debye)         (10**-30 SI)
   Tot        0.510085D+00      0.129651D+01      0.432468D+01
   x          0.165961D-01      0.421832D-01      0.140708D+00
   y          0.387105D+00      0.983922D+00      0.328201D+01
   z          0.331756D+00      0.843239D+00      0.281274D+01

 Dipole polarizability, Alpha (input orientation).
 (esu units = cm**3 , SI units = C**2 m**2 J**-1)
 Alpha(0;0):
               (au)            (10**-24 esu)      (10**-40 SI)
   iso        0.550208D+02      0.815324D+01      0.907170D+01
   aniso      0.106522D+02      0.157849D+01      0.175631D+01
   xx         0.615281D+02      0.911752D+01      0.101446D+02
   yx         0.359008D+00      0.531995D-01      0.591924D-01
   yy         0.541972D+02      0.803120D+01      0.893591D+01
   zx         0.139741D+00      0.207075D-01      0.230402D-01
   zy        -0.104529D+00     -0.154896D-01     -0.172345D-01
   zz         0.493371D+02      0.731100D+01      0.813459D+01

 ----------------------------------------------------------------------

 Dipole orientation:
     8          1.31952283         -0.35488439         -1.24548146
     6         -0.81645190         -0.46826388          0.36153070
     6         -1.13377886          1.93948035          1.90680863
     6         -3.07687174         -0.94345833         -1.33260957
     6          3.65032916         -0.30424695          0.01831059
     1         -0.57590490         -2.07559353          1.65575491
     1         -1.24646970          3.56457662          0.64334237
     1          0.42815011          2.23004249          3.21498676
     1         -2.86886315          1.84719419          3.01226343
     1         -4.79196294         -1.15206820         -0.21331050
     1         -2.79248411         -2.65099970         -2.44342871
     1         -3.32259715          0.64183339         -2.62577958
     1          3.98897493          1.50396401          0.95971026
     1          3.76882902         -1.81700628          1.42833048
     1          5.11690043         -0.59366618         -1.39208649

 Electric dipole moment (dipole orientation):
 (Debye = 10**-18 statcoulomb cm , SI units = C m)
                  (au)            (Debye)         (10**-30 SI)
   Tot        0.510085D+00      0.129651D+01      0.432468D+01
   x          0.000000D+00      0.000000D+00      0.000000D+00
   y          0.000000D+00      0.000000D+00      0.000000D+00
   z          0.510085D+00      0.129651D+01      0.432468D+01

 Dipole polarizability, Alpha (dipole orientation).
 (esu units = cm**3 , SI units = C**2 m**2 J**-1)
 Alpha(0;0):
               (au)            (10**-24 esu)      (10**-40 SI)
   iso        0.550208D+02      0.815324D+01      0.907170D+01
   aniso      0.106522D+02      0.157849D+01      0.175631D+01
   xx         0.614936D+02      0.911241D+01      0.101389D+02
   yx        -0.100841D+00     -0.149432D-01     -0.166265D-01
   yy         0.514992D+02      0.763140D+01      0.849107D+01
   zx         0.707590D+00      0.104854D+00      0.116666D+00
   zy         0.240997D+01      0.357120D+00      0.397350D+00
   zz         0.520695D+02      0.771591D+01      0.858511D+01

 ----------------------------------------------------------------------

 Test job not archived.
 1\1\GINC-C0277\Freq\RM062X\6-311+G(2df,2p)\C4H10O1\UNDERKOFFLER.C\11-M
 ar-2019\0\\#P Geom=AllCheck Guess=TCheck SCRF=Check Test GenChk RM062X
 /6-311+G(2df,2p) Freq\\Gaussian input prepared by ASE\\0,1\O,0.6791793
 242,-0.6328857885,-0.308860189\C,-0.4218387561,-0.0096703792,0.3265377
 817\C,-0.5821099445,1.4429124044,-0.1030902379\C,-1.6426405945,-0.8358
 402333,-0.0267858062\C,1.9331559936,-0.1263632195,0.0656366758\H,-0.25
 96200228,-0.0455675706,1.4133257789\H,-0.6763245991,1.4962703586,-1.18
 86284881\H,0.2641200338,2.0560043488,0.2035689476\H,-1.4799244779,1.86
 87987524,0.3443121666\H,-2.5287227225,-0.4446273377,0.4717520195\H,-1.
 4978522908,-1.8724580786,0.2717413979\H,-1.807405239,-0.8070710158,-1.
 104271535\H,2.1141373446,0.871966197,-0.3423552896\H,2.0320765596,-0.0
 822107626,1.1564009037\H,2.6867423914,-0.8040886752,-0.3288051259\\Ver
 sion=EM64L-G16RevA.03\State=1-A\HF=-233.6252115\RMSD=1.043e-09\RMSF=1.
 100e-06\ZeroPoint=0.1372226\Thermal=0.143965\Dipole=0.0165961,0.387104
 6,0.3317556\DipoleDeriv=-1.2964016,0.0403024,0.0240216,0.0411204,-0.58
 04359,-0.0562814,0.0754996,-0.0832594,-0.5040258,0.7943303,-0.1097383,
 -0.0932171,-0.2296612,0.511508,0.0057936,-0.2040365,0.0136044,0.383311
 6,-0.0173736,-0.0174017,-0.0003972,0.0740558,-0.1641432,0.0344763,0.00
 97772,0.0568573,0.0561109,-0.0636249,-0.04387,-0.0207546,-0.0759144,-0
 .0109598,-0.0023036,-0.0286822,-0.0093287,0.085214,0.7399109,0.0802236
 ,0.0772882,0.2199767,0.322295,-0.0099142,0.1778934,-0.0116845,0.353560
 1,-0.0423355,-0.0012902,-0.0834879,0.0291755,-0.0219489,0.0217355,0.00
 85543,0.0045311,-0.1942545,0.0698612,0.0008304,-0.0105974,-0.0050592,0
 .0372953,-0.0293435,-0.0239069,0.0385788,-0.107381,-0.0467064,-0.11049
 37,-0.0432805,-0.0859391,-0.02233,-0.0062408,-0.0500401,-0.0118313,0.0
 411654,-0.0722271,0.0842855,0.0609749,0.052983,0.0428195,-0.0066432,0.
 0709847,-0.0289775,0.0327421,-0.0760851,0.0293979,0.0487587,0.0684708,
 0.0326832,-0.0506834,0.0758721,-0.0384981,0.0249596,0.0537102,0.023990
 3,-0.0194691,-0.022559,-0.1143121,0.0404323,-0.0164621,0.0492702,0.053
 1531,0.0494899,-0.0145692,0.0056028,-0.0141549,0.0558728,0.0344674,-0.
 0566554,-0.0061528,-0.1077168,-0.0115772,-0.0008603,-0.0149922,-0.1097
 767,-0.1269085,0.0649367,-0.0080937,0.0830816,0.0050611,-0.0028971,-0.
 0081157,0.0437657,-0.0458791,0.0439916,0.0029514,-0.0861278,-0.0100404
 ,-0.1741195,-0.078074,0.0473089,0.0257842,0.1031613,-0.0054269,-0.0433
 829,0.0554233,-0.0461506,0.0522196\Polar=61.5280579,0.3590077,54.19720
 75,0.1397414,-0.1045287,49.3370838\Quadrupole=1.6629969,-1.1184825,-0.
 5445143,0.2868905,0.1814228,-0.4654365\PG=C01 [X(C4H10O1)]\NImag=0\\0.
 52936721,0.01351146,0.23012263,-0.02174815,0.11553334,0.20637792,-0.15
 986124,0.03287598,0.03775997,0.51010779,0.05735975,-0.11129029,-0.0500
 7160,0.02433130,0.49690219,0.06405684,-0.04568399,-0.11470088,0.035754
 21,0.00247366,0.59418851,-0.01702014,0.03837826,-0.00151801,-0.0791315
 8,-0.00109128,-0.00454602,0.58405674,0.01429249,-0.02038907,-0.0014294
 1,0.00227376,-0.17909770,0.03646294,0.01697632,0.49151698,0.00872560,-
 0.02162329,0.00603999,-0.00629085,0.04326254,-0.09635287,-0.00687981,0
 .03272124,0.57133538,-0.04666308,-0.01365963,-0.00324457,-0.15027082,-
 0.05451911,-0.02620296,0.00386914,-0.00413437,0.00025557,0.53073403,0.
 01670457,0.00937716,0.00312009,-0.06394397,-0.12088456,-0.01851109,-0.
 02900294,-0.02556715,-0.00804384,-0.04571371,0.56546487,0.02210037,0.0
 0785078,0.00487271,-0.03623835,-0.02137420,-0.09241706,0.00824794,0.00
 669969,0.00317493,-0.02299746,-0.01343822,0.57443680,-0.21955102,-0.04
 633894,-0.02717581,-0.04916942,-0.00641624,-0.00426830,0.00319277,0.00
 155410,-0.00049209,-0.00228978,0.00246081,0.00129027,0.53405732,-0.071
 95643,-0.10587786,-0.03403896,0.01266476,0.00650794,0.00802176,0.00458
 452,0.00096925,-0.00091848,0.00193630,-0.00137363,-0.00116635,-0.04305
 547,0.57741702,-0.05679595,-0.03600959,-0.08904368,0.01380915,0.009087
 12,0.00124800,0.00071864,-0.00133367,-0.00049230,0.00311843,-0.0017565
 8,-0.00225528,-0.03940703,0.00798613,0.56744847,-0.01072105,0.00578476
 ,0.03454363,-0.05735860,-0.00016107,-0.04555805,0.00146791,-0.00115895
 ,-0.00319008,-0.00494355,0.00045055,-0.02748717,0.00479665,0.00168847,
 0.00561023,0.06793682,0.00608887,-0.00084875,-0.02160015,0.00125355,-0
 .05107921,0.01522010,0.00530511,-0.00386598,0.03326680,-0.00477319,0.0
 0041272,-0.01848481,-0.00218528,-0.00058741,-0.00008023,-0.00465095,0.
 05979490,0.01317704,-0.00865349,-0.02239955,-0.04222619,0.01427646,-0.
 27794313,-0.00325550,0.00191369,-0.00948969,-0.00257414,0.00031905,-0.
 00605555,-0.00382032,-0.00084077,0.00084695,0.03795816,-0.00914268,0.3
 1088651,0.00060586,-0.00068434,-0.00020539,-0.00145679,0.00147151,-0.0
 0433498,-0.04944752,-0.00055277,-0.02305120,-0.00007743,-0.00009813,0.
 00093586,-0.00025560,0.00004304,-0.00023692,0.00061856,0.00089047,-0.0
 0021178,0.04788815,-0.00161196,0.00333067,-0.00191535,0.00238914,-0.00
 314351,0.03558818,0.00005273,-0.04652796,0.00885902,0.00098387,0.00185
 168,0.00078986,0.00043258,0.00019419,0.00012430,0.00075881,-0.00611814
 ,0.00162309,-0.00025566,0.05057478,-0.00067876,-0.00065542,0.00231716,
 -0.00041041,0.00057731,-0.01292955,-0.02302427,0.01023491,-0.31191396,
 -0.00006659,-0.00064647,0.00062200,-0.00005677,0.00026266,-0.00015540,
 -0.00000093,0.00213170,0.00097683,0.02577796,-0.01348691,0.33910892,0.
 00055267,-0.00141932,-0.00004801,0.00387827,0.00319680,0.00225998,-0.2
 1197734,-0.11792764,-0.06137198,0.00051824,0.00030446,0.00036672,-0.00
 174846,0.00026847,0.00069874,0.00025524,-0.00063672,0.00047914,-0.0015
 3792,0.00004768,-0.00013157,0.23110031,0.00087614,0.00220054,0.0001163
 8,-0.02789348,-0.01540709,-0.01048792,-0.11656611,-0.13027892,-0.04251
 531,0.00262288,-0.00581425,0.00263969,-0.00041006,-0.00069299,-0.00004
 350,0.00046444,0.00137485,0.00005094,0.00216111,0.00041471,0.00033155,
 0.12840685,0.14112220,0.00035598,-0.00078912,-0.00016090,0.01008120,0.
 00547323,0.00204354,-0.06158001,-0.04291687,-0.07070837,-0.00056185,0.
 00198032,-0.00013806,-0.00076269,-0.00075336,0.00073047,0.00050516,-0.
 00067280,0.00036363,-0.02587909,-0.01789800,-0.00741307,0.06664764,0.0
 4560986,0.07128682,0.00044860,0.00050418,-0.00076245,-0.00383390,-0.00
 056507,0.00166882,-0.23074048,0.08721299,0.09257496,-0.00018423,-0.000
 80674,0.00028726,0.00029333,-0.00009589,0.00050049,0.00006225,0.000303
 15,-0.00039748,0.00352020,-0.00233432,-0.00173280,-0.02020631,0.010120
 32,0.01050732,0.24960463,0.00413097,-0.00882445,0.00179534,0.02489630,
 -0.00732854,-0.01596744,0.08537661,-0.08617521,-0.04173710,0.00039719,
 0.00115092,-0.00063639,-0.00260185,-0.00127246,-0.00025286,-0.00031028
 ,0.00097678,0.00077042,-0.00233761,-0.00025532,0.00067722,-0.01489125,
 0.00745819,0.00866223,-0.09430619,0.09347892,-0.00084668,0.00231944,0.
 00124715,-0.00849062,0.00267287,0.00297223,0.09266393,-0.04287057,-0.0
 9310389,0.00009823,-0.00014668,0.00009206,-0.00002849,0.00018725,0.000
 15627,0.00002237,-0.00081480,-0.00011576,0.02706855,-0.01250624,-0.011
 18863,-0.00844430,0.00478026,0.00351598,-0.10181318,0.04643953,0.09639
 618,-0.00683652,-0.00379452,-0.00221018,-0.01664259,0.01349502,0.01433
 112,0.00048788,0.00102941,0.00037555,-0.22501010,0.07742513,0.10025372
 ,0.00020639,0.00080464,0.00125023,0.00058146,0.00034089,-0.00072483,-0
 .00000372,-0.00005447,-0.00010689,0.00032997,-0.00003361,-0.00036533,0
 .00050332,-0.00075237,-0.00011134,0.24492411,-0.00418650,-0.00138329,-
 0.00083096,-0.01203597,0.00627852,0.01028838,0.00017941,0.00025725,0.0
 0023176,0.08037112,-0.08365715,-0.04626641,-0.00079161,0.00081508,0.00
 036315,0.00069241,0.00056284,-0.00009899,-0.00003867,-0.00003847,0.000
 07328,0.00015496,0.00024352,-0.00004461,-0.00051539,-0.00067203,-0.000
 00187,-0.08611327,0.08730072,-0.00207363,-0.00089303,0.00053717,-0.006
 69134,0.00390354,0.00239307,0.00022319,-0.00002291,-0.00014004,0.10190
 367,-0.04552804,-0.10465242,-0.00051020,-0.00005798,0.00077154,0.00044
 723,0.00057884,0.00012454,0.00012022,-0.00007648,0.00001248,-0.0001712
 7,0.00018417,-0.00002991,-0.00005987,0.00019871,0.00033885,-0.11082373
 ,0.05078224,0.10940731,0.00242838,0.00071445,-0.00029595,0.00306052,-0
 .02743440,0.00908083,-0.00475889,-0.00196987,-0.00138314,-0.05239529,0
 .03901707,-0.01133792,-0.00008653,-0.00010875,-0.00014945,0.00112125,0
 .00088088,0.00014939,-0.00011488,0.00012860,0.00001256,0.00019484,-0.0
 0169036,0.00035241,0.00017354,-0.00005287,-0.00023228,-0.00281712,0.02
 450597,-0.00884140,0.05457513,0.00123910,0.00191254,-0.00003494,0.0041
 6565,-0.01853518,0.00548281,-0.00411246,-0.00100693,-0.00199319,0.0357
 6581,-0.29345634,0.07279079,-0.00018376,0.00022572,-0.00007615,0.00013
 032,0.00059500,-0.00042125,0.00003874,0.00021095,-0.00000435,0.0001178
 1,-0.00114041,0.00054141,0.00001954,0.00041265,-0.00002197,0.00085511,
 -0.00899397,0.00266991,-0.03809539,0.31906844,0.00067005,0.00039803,-0
 .00022793,0.00166967,-0.00933473,0.00150510,-0.00126049,-0.00075297,0.
 00013415,-0.01110064,0.07345838,-0.06958363,0.00015517,-0.00005947,-0.
 00001442,0.00082042,-0.00011802,0.00027872,-0.00014549,-0.00040079,0.0
 0037495,-0.00017597,-0.00042125,0.00064909,-0.00027328,0.00024221,-0.0
 0007644,0.00086712,-0.01530945,0.00398251,0.01330442,-0.07868666,0.070
 60164,0.00271351,0.00015900,0.00048826,-0.00598023,0.00012889,-0.03000
 664,0.00085076,0.00164030,-0.00008225,-0.05155540,0.00175574,-0.036621
 35,-0.00037188,0.00000865,-0.00018470,-0.00403901,-0.00303213,-0.00073
 327,0.00025538,-0.00042000,0.00057384,-0.00004048,0.00026001,0.0002342
 2,0.00001109,-0.00007011,0.00016027,0.00511071,-0.00195536,0.02653333,
 -0.00165281,-0.00011658,-0.00450771,0.05452029,0.00140159,0.00029157,0
 .00080803,-0.00286144,-0.00071045,-0.02052573,0.00059188,0.00118084,-0
 .00122303,0.00145828,-0.04811571,0.01011960,0.00005126,0.00000362,-0.0
 0006320,-0.00333828,-0.00146039,-0.00063850,-0.00032186,-0.00027141,0.
 00044209,0.00015977,0.00015843,0.00031456,0.00009147,-0.00009600,-0.00
 005363,-0.00279382,-0.00059080,-0.01171231,0.00397621,0.00059146,0.031
 01941,0.00152650,0.04905854,-0.00009543,0.00043858,0.00127744,-0.00138
 554,-0.00025748,-0.01080397,0.00056839,0.00041828,0.00081616,-0.038386
 48,0.00906715,-0.30971314,0.00012869,0.00012778,0.00038548,-0.00135719
 ,-0.00106947,0.00119436,0.00001269,-0.00072185,0.00036598,0.00002271,0
 .00003707,0.00037841,-0.00015465,-0.00004479,-0.00004223,-0.00245590,0
 .00089911,-0.01265756,-0.00069551,-0.00019289,-0.00752119,0.04364997,-
 0.00867584,0.33631572,-0.01959721,-0.03623924,0.00829963,0.00394536,-0
 .00431751,-0.00071332,-0.00018712,0.00098873,-0.00001861,-0.00052579,0
 .00051351,0.00020851,-0.05317938,-0.02183934,0.01168587,-0.00046275,0.
 00025475,0.00029918,-0.00007169,0.00007845,-0.00020541,-0.00161477,0.0
 0136338,0.00039122,0.00029185,-0.00000361,-0.00007856,-0.00030129,0.00
 007673,-0.00006030,0.00018774,0.00021481,-0.00001206,0.00008409,-0.000
 02210,-0.00002966,0.06492817,-0.01655212,-0.01011299,-0.00106172,0.002
 65054,-0.00137321,-0.00178432,-0.00019475,-0.00075450,-0.00022764,-0.0
 0028593,0.00023816,0.00020819,-0.02622719,-0.25943014,0.09109047,-0.00
 025331,0.00014410,0.00030906,-0.00017867,-0.00011424,0.00009430,0.0021
 0712,0.00000906,0.00014458,0.00017031,0.00074972,0.00004263,-0.0002106
 9,-0.00001303,-0.00003173,0.00010711,0.00013728,-0.00002440,0.00003227
 ,-0.00002755,-0.00003084,0.03856309,0.28630383,-0.00283698,-0.01310757
 ,0.00786662,-0.00000505,0.00062273,0.00010074,0.00028242,0.00062096,0.
 00052591,0.00005287,-0.00008180,0.00023208,0.01322766,0.09201252,-0.09
 290486,-0.00044146,0.00015869,-0.00008004,-0.00006775,0.00007414,-0.00
 026388,0.00006476,-0.00050718,-0.00006494,-0.00026222,-0.00027721,-0.0
 0021885,-0.00001367,0.00006010,-0.00003043,-0.00001126,-0.00004343,-0.
 00003415,0.00002929,0.00000667,0.00000778,-0.01150129,-0.09773617,0.09
 140552,-0.01907133,-0.00659584,-0.03625780,0.00436156,-0.00206175,-0.0
 0679998,-0.00045003,0.00020240,0.00064896,-0.00013968,-0.00008652,0.00
 015480,-0.05082096,0.00185405,-0.00598770,0.00056938,0.00003540,0.0016
 5549,0.00007842,-0.00020620,0.00007155,0.00008012,0.00010957,0.0000016
 0,-0.00002381,0.00024329,0.00000652,-0.00007712,-0.00000611,0.00014256
 ,0.00003993,0.00001186,-0.00004560,0.00009280,0.00006267,0.00026123,0.
 00189128,0.00167042,0.00320387,0.06027012,-0.00746367,0.00012451,-0.01
 690420,0.00182989,-0.00013816,0.00009230,-0.00010761,0.00015641,0.0002
 1665,0.00006727,-0.00001069,0.00006577,0.00049040,-0.05256168,-0.00242
 856,-0.00012746,0.00017731,0.00052739,-0.00015300,-0.00012701,-0.00006
 827,-0.00023732,-0.00011518,0.00009821,-0.00002569,0.00010826,-0.00007
 464,-0.00002754,0.00000016,0.00004534,-0.00001450,-0.00004348,-0.00003
 354,0.00007223,-0.00001378,0.00002401,0.00130205,0.00199564,0.03011209
 ,0.00595222,0.04978103,-0.01398798,-0.00589265,-0.00902599,0.00333302,
 -0.00111365,0.00148602,-0.00047632,0.00014689,-0.00014839,-0.00004214,
 0.00020741,0.00083044,-0.01058010,-0.00427304,-0.29677857,-0.00170786,
 0.00062451,0.00073085,0.00015787,-0.00003508,0.00007345,-0.00012197,0.
 00021725,-0.00028414,-0.00005440,0.00012554,0.00003574,-0.00017413,-0.
 00003598,-0.00001079,0.00004737,0.00000101,-0.00005796,0.00035929,0.00
 009821,-0.00000634,0.00117216,-0.00030520,-0.01223396,0.02184026,0.009
 32342,0.32546170,-0.03679464,0.01680374,0.01237483,-0.00164830,-0.0034
 1682,-0.00472155,-0.00021210,-0.00042691,0.00017937,-0.00106627,0.0010
 2018,0.00083680,-0.16507343,0.11320297,0.06536996,0.00011546,-0.000074
 78,0.00022512,-0.00000101,0.00001075,-0.00002152,0.00021563,0.00020893
 ,0.00007221,0.00007994,0.00028178,0.00002557,-0.00045538,-0.00033772,-
 0.00013848,0.00004420,-0.00005055,0.00003438,0.00000119,0.00001786,-0.
 00008331,0.00461151,-0.00139819,-0.00172120,0.00319932,-0.00155727,0.0
 0023491,0.19698387,-0.01383426,0.01136708,0.00651410,-0.00259601,-0.00
 070077,-0.00066961,-0.00036970,-0.00041731,-0.00027613,-0.00051679,0.0
 0038397,0.00020202,0.12322127,-0.16433663,-0.06660682,0.00003055,-0.00
 007860,0.00000559,0.00001584,0.00001907,0.00003639,0.00034833,0.000467
 33,0.00025036,0.00022734,0.00028859,0.00004842,-0.00016990,-0.00010935
 ,-0.00004029,0.00003584,0.00002226,0.00002325,0.00001060,0.00000162,-0
 .00001882,0.01906631,-0.01775214,-0.01191453,-0.00118545,0.00066665,0.
 00091133,-0.12428397,0.17017823,-0.01002232,0.00676798,0.00502277,-0.0
 0066888,-0.00019779,-0.00078975,-0.00016409,0.00010780,0.00032300,-0.0
 0025195,0.00000031,0.00055413,0.07230002,-0.06648969,-0.08994266,-0.00
 016446,0.00000232,0.00068131,0.00005945,-0.00001790,0.00001273,-0.0000
 7462,0.00000799,-0.00016855,-0.00002852,0.00000459,-0.00000866,-0.0000
 9174,-0.00010975,-0.00004633,-0.00000007,-0.00001110,-0.00001043,0.000
 10743,0.00008365,0.00000309,-0.00943737,0.00931280,0.00569246,0.021104
 23,-0.02099597,-0.01007204,-0.07266711,0.07153476,0.08874892\\0.000000
 62,0.00000081,-0.00000055,0.00000020,-0.00000035,0.00000011,-0.0000012
 3,-0.00000039,0.00000069,0.00000085,-0.00000138,0.00000007,0.00000026,
 0.00000183,-0.00000063,0.00000056,-0.00000073,-0.00000008,-0.00000161,
 -0.00000004,0.00000073,-0.00000173,0.00000024,0.00000067,-0.00000148,-
 0.00000140,0.00000111,0.00000067,-0.00000241,0.00000047,0.00000190,-0.
 00000141,-0.00000040,0.00000052,-0.00000111,0.00000012,-0.00000080,0.0
 0000216,-0.00000035,0.00000054,0.00000148,-0.00000076,0.00000074,0.000
 00268,-0.00000120\\\@


 DON'T WORRY CHARLIE BROWN...WE LEARN MORE FROM LOSING 
 THAN WE DO FROM WINNING.
 THEN THAT MAKES ME THE SMARTEST PERSON IN THE WORLD...
 CHARLES SCHULZ 'PEANUTS'
 Job cpu time:       0 days  1 hours 10 minutes 27.4 seconds.
 Elapsed time:       0 days  0 hours  3 minutes 32.2 seconds.
 File lengths (MBytes):  RWF=   1328 Int=      0 D2E=      0 Chk=     32 Scr=     32
 Normal termination of Gaussian 16 at Mon Mar 11 15:49:52 2019.
