 Entering Gaussian System, Link 0=g16
 Input=RMGHERXMTMUMMV-UHFFFAOYSA-N_36by10.0_tor04_a1_F.com
 Output=RMGHERXMTMUMMV-UHFFFAOYSA-N_36by10.0_tor04_a1_F.log
 Initial command:
 /shared/centos7/gaussian/g16/l1.exe "/scratch/underkoffler.c/gaussian_scratch/Gau-12741.inp" -scrdir="/scratch/underkoffler.c/gaussian_scratch/"
 Entering Link 1 = /shared/centos7/gaussian/g16/l1.exe PID=     12742.
  
 Copyright (c) 1988,1990,1992,1993,1995,1998,2003,2009,2016,
            Gaussian, Inc.  All Rights Reserved.
  
 This is part of the Gaussian(R) 16 program.  It is based on
 the Gaussian(R) 09 system (copyright 2009, Gaussian, Inc.),
 the Gaussian(R) 03 system (copyright 2003, Gaussian, Inc.),
 the Gaussian(R) 98 system (copyright 1998, Gaussian, Inc.),
 the Gaussian(R) 94 system (copyright 1995, Gaussian, Inc.),
 the Gaussian 92(TM) system (copyright 1992, Gaussian, Inc.),
 the Gaussian 90(TM) system (copyright 1990, Gaussian, Inc.),
 the Gaussian 88(TM) system (copyright 1988, Gaussian, Inc.),
 the Gaussian 86(TM) system (copyright 1986, Carnegie Mellon
 University), and the Gaussian 82(TM) system (copyright 1983,
 Carnegie Mellon University). Gaussian is a federally registered
 trademark of Gaussian, Inc.
  
 This software contains proprietary and confidential information,
 including trade secrets, belonging to Gaussian, Inc.
  
 This software is provided under written license and may be
 used, copied, transmitted, or stored only in accord with that
 written license.
  
 The following legend is applicable only to US Government
 contracts under FAR:
  
                    RESTRICTED RIGHTS LEGEND
  
 Use, reproduction and disclosure by the US Government is
 subject to restrictions as set forth in subparagraphs (a)
 and (c) of the Commercial Computer Software - Restricted
 Rights clause in FAR 52.227-19.
  
 Gaussian, Inc.
 340 Quinnipiac St., Bldg. 40, Wallingford CT 06492
  
  
 ---------------------------------------------------------------
 Warning -- This program may not be used in any manner that
 competes with the business of Gaussian, Inc. or will provide
 assistance to any competitor of Gaussian, Inc.  The licensee
 of this program is prohibited from giving any competitor of
 Gaussian, Inc. access to this program.  By using this program,
 the user acknowledges that Gaussian, Inc. is engaged in the
 business of creating and licensing software in the field of
 computational chemistry and represents and warrants to the
 licensee that it is not a competitor of Gaussian, Inc. and that
 it will not use this program in any manner prohibited above.
 ---------------------------------------------------------------
  

 Cite this work as:
 Gaussian 16, Revision A.03,
 M. J. Frisch, G. W. Trucks, H. B. Schlegel, G. E. Scuseria, 
 M. A. Robb, J. R. Cheeseman, G. Scalmani, V. Barone, 
 G. A. Petersson, H. Nakatsuji, X. Li, M. Caricato, A. V. Marenich, 
 J. Bloino, B. G. Janesko, R. Gomperts, B. Mennucci, H. P. Hratchian, 
 J. V. Ortiz, A. F. Izmaylov, J. L. Sonnenberg, D. Williams-Young, 
 F. Ding, F. Lipparini, F. Egidi, J. Goings, B. Peng, A. Petrone, 
 T. Henderson, D. Ranasinghe, V. G. Zakrzewski, J. Gao, N. Rega, 
 G. Zheng, W. Liang, M. Hada, M. Ehara, K. Toyota, R. Fukuda, 
 J. Hasegawa, M. Ishida, T. Nakajima, Y. Honda, O. Kitao, H. Nakai, 
 T. Vreven, K. Throssell, J. A. Montgomery, Jr., J. E. Peralta, 
 F. Ogliaro, M. J. Bearpark, J. J. Heyd, E. N. Brothers, K. N. Kudin, 
 V. N. Staroverov, T. A. Keith, R. Kobayashi, J. Normand, 
 K. Raghavachari, A. P. Rendell, J. C. Burant, S. S. Iyengar, 
 J. Tomasi, M. Cossi, J. M. Millam, M. Klene, C. Adamo, R. Cammi, 
 J. W. Ochterski, R. L. Martin, K. Morokuma, O. Farkas, 
 J. B. Foresman, and D. J. Fox, Gaussian, Inc., Wallingford CT, 2016.
 
 ******************************************
 Gaussian 16:  EM64L-G16RevA.03 25-Dec-2016
                23-Apr-2019 
 ******************************************
 %nprocshared=20
 Will use up to   20 processors via shared memory.
 %mem=5GB
 ----------------------------------------------
 #p m062x/6-311+g(2df,2p) Opt=(CalcFC,ModRedun)
 ----------------------------------------------
 1/10=4,18=120,19=15,26=3,38=1/1,3;
 2/9=110,12=2,17=6,18=5,40=1/2;
 3/5=4,6=6,7=214,11=2,25=1,30=1,71=2,74=-55,140=1/1,2,3;
 4//1;
 5/5=2,38=5/2;
 8/6=4,10=90,11=11/1;
 11/6=1,8=1,9=11,15=111,16=1/1,2,10;
 10/6=1,13=1/2;
 6/7=2,8=2,9=2,10=2,28=1/1;
 7/10=1,18=20,25=1/1,2,3,16;
 1/10=4,18=20,19=15,26=3/3(2);
 2/9=110/2;
 99//99;
 2/9=110/2;
 3/5=4,6=6,7=214,11=2,25=1,30=1,71=1,74=-55/1,2,3;
 4/5=5,16=3,69=1/1;
 5/5=2,38=5/2;
 7//1,2,3,16;
 1/18=20,19=15,26=3/3(-5);
 2/9=110/2;
 6/7=2,8=2,9=2,10=2,19=2,28=1/1;
 99/9=1/99;
 Leave Link    1 at Tue Apr 23 21:46:49 2019, MaxMem=   671088640 cpu:              58.8 elap:               3.1
 (Enter /shared/centos7/gaussian/g16/l101.exe)
 ----------------------------------------
 Gaussian Input Prepared from Scan Object
 ----------------------------------------
 Symbolic Z-matrix:
 Charge =  0 Multiplicity = 1
 O                     0.67918  -0.63289  -0.30886 
 C                    -0.42184  -0.00967   0.32654 
 C                    -0.58211   1.44291  -0.10309 
 C                    -1.64264  -0.83584  -0.02679 
 C                     1.93316  -0.12636   0.06564 
 H                    -0.25962  -0.04557   1.41333 
 H                    -0.67632   1.49627  -1.18863 
 H                     0.26412   2.056     0.20357 
 H                    -1.47992   1.8688    0.34431 
 H                    -2.52872  -0.44463   0.47175 
 H                    -1.49785  -1.87246   0.27174 
 H                    -1.80741  -0.80707  -1.10427 
 H                     2.11414   0.87197  -0.34236 
 H                     2.03208  -0.08221   1.1564 
 H                     2.68674  -0.80409  -0.32881 
 
 The following ModRedundant input section has been read:
 B       5      15 B                                                           
 B       4      12 B                                                           
 B       5      14 B                                                           
 B       4      10 B                                                           
 B       4      11 B                                                           
 B       2       6 B                                                           
 B       1       5 B                                                           
 B       3       8 B                                                           
 B       3       9 B                                                           
 B       3       7 B                                                           
 B       5      13 B                                                           
 B       2       4 B                                                           
 B       2       3 B                                                           
 B       1       2 B                                                           
 D       2       1       5      15 S  36 10.000                                
 D       5       1       2       6 F                                           
 D       6       2       3       9 F                                           
 D       6       2       4      11 F                                           
 
 ITRead=  0  0  0  0  0  0  0  0  0  0  0  0  0  0  0
 MicOpt= -1 -1 -1 -1 -1 -1 -1 -1 -1 -1 -1 -1 -1 -1 -1
 NAtoms=     15 NQM=       15 NQMF=       0 NMMI=      0 NMMIF=      0
                NMic=       0 NMicF=      0.
                    Isotopes and Nuclear Properties:
 (Nuclear quadrupole moments (NQMom) in fm**2, nuclear magnetic moments (NMagM)
  in nuclear magnetons)

  Atom         1           2           3           4           5           6           7           8           9          10
 IAtWgt=          16          12          12          12          12           1           1           1           1           1
 AtmWgt=  15.9949146  12.0000000  12.0000000  12.0000000  12.0000000   1.0078250   1.0078250   1.0078250   1.0078250   1.0078250
 NucSpn=           0           0           0           0           0           1           1           1           1           1
 AtZEff=  -0.0000000  -0.0000000  -0.0000000  -0.0000000  -0.0000000  -0.0000000  -0.0000000  -0.0000000  -0.0000000  -0.0000000
 NQMom=    0.0000000   0.0000000   0.0000000   0.0000000   0.0000000   0.0000000   0.0000000   0.0000000   0.0000000   0.0000000
 NMagM=    0.0000000   0.0000000   0.0000000   0.0000000   0.0000000   2.7928460   2.7928460   2.7928460   2.7928460   2.7928460
 AtZNuc=   8.0000000   6.0000000   6.0000000   6.0000000   6.0000000   1.0000000   1.0000000   1.0000000   1.0000000   1.0000000

  Atom        11          12          13          14          15
 IAtWgt=           1           1           1           1           1
 AtmWgt=   1.0078250   1.0078250   1.0078250   1.0078250   1.0078250
 NucSpn=           1           1           1           1           1
 AtZEff=  -0.0000000  -0.0000000  -0.0000000  -0.0000000  -0.0000000
 NQMom=    0.0000000   0.0000000   0.0000000   0.0000000   0.0000000
 NMagM=    2.7928460   2.7928460   2.7928460   2.7928460   2.7928460
 AtZNuc=   1.0000000   1.0000000   1.0000000   1.0000000   1.0000000
 Leave Link  101 at Tue Apr 23 21:46:50 2019, MaxMem=   671088640 cpu:               6.1 elap:               0.3
 (Enter /shared/centos7/gaussian/g16/l103.exe)

 GradGradGradGradGradGradGradGradGradGradGradGradGradGradGradGradGradGrad
 Berny optimization.
 Initialization pass.
                           ----------------------------
                           !    Initial Parameters    !
                           ! (Angstroms and Degrees)  !
 --------------------------                            --------------------------
 ! Name  Definition              Value          Derivative Info.                !
 --------------------------------------------------------------------------------
 ! R1    R(1,2)                  1.4158         calculate D2E/DX2 analytically  !
 ! R2    R(1,5)                  1.4033         calculate D2E/DX2 analytically  !
 ! R3    R(2,3)                  1.5232         calculate D2E/DX2 analytically  !
 ! R4    R(2,4)                  1.5158         calculate D2E/DX2 analytically  !
 ! R5    R(2,6)                  1.0994         calculate D2E/DX2 analytically  !
 ! R6    R(3,7)                  1.0909         calculate D2E/DX2 analytically  !
 ! R7    R(3,8)                  1.089          calculate D2E/DX2 analytically  !
 ! R8    R(3,9)                  1.0898         calculate D2E/DX2 analytically  !
 ! R9    R(4,10)                 1.0894         calculate D2E/DX2 analytically  !
 ! R10   R(4,11)                 1.0884         calculate D2E/DX2 analytically  !
 ! R11   R(4,12)                 1.0904         calculate D2E/DX2 analytically  !
 ! R12   R(5,13)                 1.0936         calculate D2E/DX2 analytically  !
 ! R13   R(5,14)                 1.0961         calculate D2E/DX2 analytically  !
 ! R14   R(5,15)                 1.0876         calculate D2E/DX2 analytically  !
 ! A1    A(2,1,5)              114.5994         calculate D2E/DX2 analytically  !
 ! A2    A(1,2,3)              112.0256         calculate D2E/DX2 analytically  !
 ! A3    A(1,2,4)              106.3672         calculate D2E/DX2 analytically  !
 ! A4    A(1,2,6)              108.3324         calculate D2E/DX2 analytically  !
 ! A5    A(3,2,4)              111.6702         calculate D2E/DX2 analytically  !
 ! A6    A(3,2,6)              108.9941         calculate D2E/DX2 analytically  !
 ! A7    A(4,2,6)              109.3567         calculate D2E/DX2 analytically  !
 ! A8    A(2,3,7)              109.6568         calculate D2E/DX2 analytically  !
 ! A9    A(2,3,8)              112.0657         calculate D2E/DX2 analytically  !
 ! A10   A(2,3,9)              110.0941         calculate D2E/DX2 analytically  !
 ! A11   A(7,3,8)              108.6488         calculate D2E/DX2 analytically  !
 ! A12   A(7,3,9)              108.5573         calculate D2E/DX2 analytically  !
 ! A13   A(8,3,9)              107.7313         calculate D2E/DX2 analytically  !
 ! A14   A(2,4,10)             110.6511         calculate D2E/DX2 analytically  !
 ! A15   A(2,4,11)             110.3663         calculate D2E/DX2 analytically  !
 ! A16   A(2,4,12)             109.7335         calculate D2E/DX2 analytically  !
 ! A17   A(10,4,11)            108.948          calculate D2E/DX2 analytically  !
 ! A18   A(10,4,12)            108.6532         calculate D2E/DX2 analytically  !
 ! A19   A(11,4,12)            108.4369         calculate D2E/DX2 analytically  !
 ! A20   A(1,5,13)             112.1999         calculate D2E/DX2 analytically  !
 ! A21   A(1,5,14)             111.1458         calculate D2E/DX2 analytically  !
 ! A22   A(1,5,15)             107.3052         calculate D2E/DX2 analytically  !
 ! A23   A(13,5,14)            108.6358         calculate D2E/DX2 analytically  !
 ! A24   A(13,5,15)            108.5968         calculate D2E/DX2 analytically  !
 ! A25   A(14,5,15)            108.8734         calculate D2E/DX2 analytically  !
 ! D1    D(5,1,2,3)             66.8754         calculate D2E/DX2 analytically  !
 ! D2    D(5,1,2,4)           -170.8503         calculate D2E/DX2 analytically  !
 ! D3    D(5,1,2,6)            -53.3837         frozen, calculate D2E/DX2 analyt!
 ! D4    D(2,1,5,13)           -71.7954         calculate D2E/DX2 analytically  !
 ! D5    D(2,1,5,14)            50.0681         calculate D2E/DX2 analytically  !
 ! D6    D(2,1,5,15)           169.001          Scan                            !
 ! D7    D(1,2,3,7)             56.326          calculate D2E/DX2 analytically  !
 ! D8    D(1,2,3,8)            -64.4168         calculate D2E/DX2 analytically  !
 ! D9    D(1,2,3,9)            175.7012         calculate D2E/DX2 analytically  !
 ! D10   D(4,2,3,7)            -62.8728         calculate D2E/DX2 analytically  !
 ! D11   D(4,2,3,8)            176.3844         calculate D2E/DX2 analytically  !
 ! D12   D(4,2,3,9)             56.5024         calculate D2E/DX2 analytically  !
 ! D13   D(6,2,3,7)            176.199          calculate D2E/DX2 analytically  !
 ! D14   D(6,2,3,8)             55.4562         calculate D2E/DX2 analytically  !
 ! D15   D(6,2,3,9)            -64.4258         frozen, calculate D2E/DX2 analyt!
 ! D16   D(1,2,4,10)           177.0752         calculate D2E/DX2 analytically  !
 ! D17   D(1,2,4,11)            56.4075         calculate D2E/DX2 analytically  !
 ! D18   D(1,2,4,12)           -63.0356         calculate D2E/DX2 analytically  !
 ! D19   D(3,2,4,10)           -60.4258         calculate D2E/DX2 analytically  !
 ! D20   D(3,2,4,11)           178.9065         calculate D2E/DX2 analytically  !
 ! D21   D(3,2,4,12)            59.4633         calculate D2E/DX2 analytically  !
 ! D22   D(6,2,4,10)            60.2911         calculate D2E/DX2 analytically  !
 ! D23   D(6,2,4,11)           -60.3766         frozen, calculate D2E/DX2 analyt!
 ! D24   D(6,2,4,12)          -179.8198         calculate D2E/DX2 analytically  !
 --------------------------------------------------------------------------------
 Trust Radius=3.00D-01 FncErr=1.00D-07 GrdErr=1.00D-06 EigMax=2.50D+02 EigMin=1.00D-04
 Number of optimizations in scan=  37
 Number of steps in this run=     73 maximum allowed number of steps=    100.
 GradGradGradGradGradGradGradGradGradGradGradGradGradGradGradGradGradGrad

 Leave Link  103 at Tue Apr 23 21:46:50 2019, MaxMem=   671088640 cpu:               0.2 elap:               0.0
 (Enter /shared/centos7/gaussian/g16/l202.exe)
                          Input orientation:                          
 ---------------------------------------------------------------------
 Center     Atomic      Atomic             Coordinates (Angstroms)
 Number     Number       Type             X           Y           Z
 ---------------------------------------------------------------------
      1          8           0        0.679179   -0.632886   -0.308860
      2          6           0       -0.421839   -0.009670    0.326538
      3          6           0       -0.582110    1.442912   -0.103090
      4          6           0       -1.642641   -0.835840   -0.026786
      5          6           0        1.933156   -0.126363    0.065637
      6          1           0       -0.259620   -0.045568    1.413326
      7          1           0       -0.676325    1.496270   -1.188628
      8          1           0        0.264120    2.056004    0.203569
      9          1           0       -1.479924    1.868799    0.344312
     10          1           0       -2.528723   -0.444627    0.471752
     11          1           0       -1.497852   -1.872458    0.271741
     12          1           0       -1.807405   -0.807071   -1.104272
     13          1           0        2.114137    0.871966   -0.342355
     14          1           0        2.032077   -0.082211    1.156401
     15          1           0        2.686742   -0.804089   -0.328805
 ---------------------------------------------------------------------
                    Distance matrix (angstroms):
                    1          2          3          4          5
     1  O    0.000000
     2  C    1.415757   0.000000
     3  C    2.437648   1.523241   0.000000
     4  C    2.347681   1.515834   2.514610   0.000000
     5  C    1.403307   2.372275   2.969454   3.646673   0.000000
     6  H    2.047489   1.099414   2.149207   2.147370   2.575085
     7  H    2.672955   2.151360   1.090925   2.778918   3.318962
     8  H    2.768571   2.180063   1.089049   3.471536   2.750897
     9  H    3.368500   2.156040   1.089779   2.734824   3.963262
    10  H    3.306877   2.156208   2.771742   1.089371   4.491613
    11  H    2.571596   2.151926   3.459879   1.088420   3.855275
    12  H    2.616510   2.145427   2.750661   1.090390   3.977920
    13  H    2.079617   2.766925   2.766401   4.138788   1.093560
    14  H    2.068952   2.591454   3.278153   3.933374   1.096130
    15  H    2.014949   3.274729   3.973079   4.340021   1.087561
                    6          7          8          9         10
     6  H    0.000000
     7  H    3.053043   0.000000
     8  H    2.480810   1.770862   0.000000
     9  H    2.509329   1.770440   1.759700   0.000000
    10  H    2.488903   3.155206   3.758331   2.543258   0.000000
    11  H    2.484746   3.762435   4.306044   3.742004   1.772399
    12  H    3.051856   2.567458   3.768138   3.060379   1.770738
    13  H    3.091765   2.982048   2.263304   3.792422   4.894113
    14  H    2.306345   3.914869   2.933517   4.098790   4.626119
    15  H    3.505913   4.164273   3.785849   4.995851   5.288779
                   11         12         13         14         15
    11  H    0.000000
    12  H    1.767564   0.000000
    13  H    4.577712   4.333380   0.000000
    14  H    4.055614   4.514165   1.778611   0.000000
    15  H    4.360379   4.560561   1.771220   1.776382   0.000000
 Stoichiometry    C4H10O
 Framework group  C1[X(C4H10O)]
 Deg. of freedom    39
 Full point group                 C1      NOp   1
 Largest Abelian subgroup         C1      NOp   1
 Largest concise Abelian subgroup C1      NOp   1
                         Standard orientation:                         
 ---------------------------------------------------------------------
 Center     Atomic      Atomic             Coordinates (Angstroms)
 Number     Number       Type             X           Y           Z
 ---------------------------------------------------------------------
      1          8           0        0.679189   -0.632878   -0.308859
      2          6           0       -0.421840   -0.009681    0.326539
      3          6           0       -0.582136    1.442899   -0.103089
      4          6           0       -1.642628   -0.835872   -0.026785
      5          6           0        1.933157   -0.126334    0.065638
      6          1           0       -0.259621   -0.045576    1.413327
      7          1           0       -0.676352    1.496255   -1.188627
      8          1           0        0.264083    2.056005    0.203570
      9          1           0       -1.479958    1.868769    0.344313
     10          1           0       -2.528717   -0.444675    0.471753
     11          1           0       -1.497821   -1.872488    0.271743
     12          1           0       -1.807393   -0.807106   -1.104270
     13          1           0        2.114121    0.871999   -0.342354
     14          1           0        2.032077   -0.082180    1.156402
     15          1           0        2.686755   -0.804046   -0.328804
 ---------------------------------------------------------------------
 Rotational constants (GHZ):           7.7293204           3.8506206           2.8503180
 Leave Link  202 at Tue Apr 23 21:46:50 2019, MaxMem=   671088640 cpu:               0.2 elap:               0.0
 (Enter /shared/centos7/gaussian/g16/l301.exe)
 Standard basis: 6-311+G(2df,2p) (5D, 7F)
 Ernie: Thresh=  0.10000D-02 Tol=  0.10000D-05 Strict=F.
 There are   285 symmetry adapted cartesian basis functions of A   symmetry.
 There are   260 symmetry adapted basis functions of A   symmetry.
   260 basis functions,   370 primitive gaussians,   285 cartesian basis functions
    21 alpha electrons       21 beta electrons
       nuclear repulsion energy       197.4095515522 Hartrees.
 IExCor= 4336 DFT=T Ex+Corr=M062X ExCW=0 ScaHFX=  0.540000
 ScaDFX=  1.000000  1.000000  1.000000  1.000000 ScalE2=  1.000000  1.000000
 IRadAn=      5 IRanWt=     -1 IRanGd=            0 ICorTp=0 IEmpDi=  4
 NAtoms=   15 NActive=   15 NUniq=   15 SFac= 1.00D+00 NAtFMM=   60 NAOKFM=F Big=F
 Integral buffers will be    131072 words long.
 Raffenetti 2 integral format.
 Two-electron integral symmetry is turned on.
 Leave Link  301 at Tue Apr 23 21:46:50 2019, MaxMem=   671088640 cpu:               1.3 elap:               0.1
 (Enter /shared/centos7/gaussian/g16/l302.exe)
 NPDir=0 NMtPBC=     1 NCelOv=     1 NCel=       1 NClECP=     1 NCelD=      1
         NCelK=      1 NCelE2=     1 NClLst=     1 CellRange=     0.0.
 One-electron integrals computed using PRISM.
 One-electron integral symmetry used in STVInt
 NBasis=   260 RedAO= T EigKep=  4.54D-05  NBF=   260
 NBsUse=   260 1.00D-06 EigRej= -1.00D+00 NBFU=   260
 Precomputing XC quadrature grid using
 IXCGrd= 4 IRadAn=           5 IRanWt=          -1 IRanGd=           0 AccXCQ= 0.00D+00.
 Generated NRdTot=       0 NPtTot=           0 NUsed=           0 NTot=          32
 NSgBfM=   285   285   285   285   285 MxSgAt=    15 MxSgA2=    15.
 Leave Link  302 at Tue Apr 23 21:46:50 2019, MaxMem=   671088640 cpu:               5.4 elap:               0.3
 (Enter /shared/centos7/gaussian/g16/l303.exe)
 DipDrv:  MaxL=1.
 Leave Link  303 at Tue Apr 23 21:46:50 2019, MaxMem=   671088640 cpu:               1.2 elap:               0.1
 (Enter /shared/centos7/gaussian/g16/l401.exe)
 ExpMin= 4.38D-02 ExpMax= 8.59D+03 ExpMxC= 1.30D+03 IAcc=3 IRadAn=         5 AccDes= 0.00D+00
 Harris functional with IExCor= 1009 and IRadAn=       5 diagonalized for initial guess.
 HarFok:  IExCor= 1009 AccDes= 0.00D+00 IRadAn=         5 IDoV= 1 UseB2=F ITyADJ=14
 ICtDFT=  3500011 ScaDFX=  1.000000  1.000000  1.000000  1.000000
 FoFCou: FMM=F IPFlag=           0 FMFlag=      100000 FMFlg1=           0
         NFxFlg=           0 DoJE=T BraDBF=F KetDBF=T FulRan=T
         wScrn=  0.000000 ICntrl=       500 IOpCl=  0 I1Cent=   200000004 NGrid=           0
         NMat0=    1 NMatS0=      1 NMatT0=    0 NMatD0=    1 NMtDS0=    0 NMtDT0=    0
 Petite list used in FoFCou.
 Harris En= -233.583115224435    
 JPrj=0 DoOrth=F DoCkMO=F.
 Leave Link  401 at Tue Apr 23 21:46:52 2019, MaxMem=   671088640 cpu:              20.4 elap:               1.1
 (Enter /shared/centos7/gaussian/g16/l502.exe)
 Integral symmetry usage will be decided dynamically.
 Closed shell SCF:
 Using DIIS extrapolation, IDIIS=  1040.
 NGot=   671088640 LenX=   670917793 LenY=   670836127
 Requested convergence on RMS density matrix=1.00D-08 within 128 cycles.
 Requested convergence on MAX density matrix=1.00D-06.
 Requested convergence on             energy=1.00D-06.
 No special actions if energy rises.
 Fock matrices will be formed incrementally for  20 cycles.

 Cycle   1  Pass 1  IDiag  1:
 FoFJK:  IHMeth= 1 ICntrl=       0 DoSepK=F KAlg= 0 I1Cent=           0 FoldK=F
 IRaf= 980000000 NMat=       1 IRICut=       1 DoRegI=T DoRafI=F ISym2E= 0 IDoP0=0 IntGTp=1.
 FoFCou: FMM=F IPFlag=           0 FMFlag=      100000 FMFlg1=           0
         NFxFlg=           0 DoJE=F BraDBF=F KetDBF=F FulRan=T
         wScrn=  0.000000 ICntrl=         0 IOpCl=  0 I1Cent=           0 NGrid=           0
         NMat0=    1 NMatS0=      1 NMatT0=    0 NMatD0=    1 NMtDS0=    0 NMtDT0=    0
 Symmetry not used in FoFCou.
 E= -233.419632294200    
 DIIS: error= 2.45D-02 at cycle   1 NSaved=   1.
 NSaved= 1 IEnMin= 1 EnMin= -233.419632294200     IErMin= 1 ErrMin= 2.45D-02
 ErrMax= 2.45D-02  0.00D+00 EMaxC= 1.00D-01 BMatC= 2.41D-01 BMatP= 2.41D-01
 IDIUse=3 WtCom= 7.55D-01 WtEn= 2.45D-01
 Coeff-Com:  0.100D+01
 Coeff-En:   0.100D+01
 Coeff:      0.100D+01
 Gap=     0.316 Goal=   None    Shift=    0.000
 GapD=    0.316 DampG=1.000 DampE=0.500 DampFc=0.5000 IDamp=-1.
 Damping current iteration by 5.00D-01
 RMSDP=2.34D-03 MaxDP=1.14D-01              OVMax= 1.50D-01

 Cycle   2  Pass 1  IDiag  1:
 RMSU=  1.14D-03    CP:  9.70D-01
 E= -233.526705155558     Delta-E=       -0.107072861358 Rises=F Damp=T
 DIIS: error= 5.03D-03 at cycle   2 NSaved=   2.
 NSaved= 2 IEnMin= 2 EnMin= -233.526705155558     IErMin= 2 ErrMin= 5.03D-03
 ErrMax= 5.03D-03  0.00D+00 EMaxC= 1.00D-01 BMatC= 1.45D-02 BMatP= 2.41D-01
 IDIUse=3 WtCom= 9.50D-01 WtEn= 5.03D-02
 Coeff-Com: -0.128D+00 0.113D+01
 Coeff-En:   0.000D+00 0.100D+01
 Coeff:     -0.121D+00 0.112D+01
 Gap=     0.365 Goal=   None    Shift=    0.000
 RMSDP=8.36D-04 MaxDP=5.07D-02 DE=-1.07D-01 OVMax= 7.44D-02

 Cycle   3  Pass 1  IDiag  1:
 RMSU=  8.31D-04    CP:  9.59D-01  9.80D-01
 E= -233.623334792798     Delta-E=       -0.096629637240 Rises=F Damp=F
 DIIS: error= 3.34D-03 at cycle   3 NSaved=   3.
 NSaved= 3 IEnMin= 3 EnMin= -233.623334792798     IErMin= 3 ErrMin= 3.34D-03
 ErrMax= 3.34D-03  0.00D+00 EMaxC= 1.00D-01 BMatC= 2.36D-03 BMatP= 1.45D-02
 IDIUse=3 WtCom= 9.67D-01 WtEn= 3.34D-02
 Coeff-Com: -0.711D-01 0.293D+00 0.778D+00
 Coeff-En:   0.000D+00 0.000D+00 0.100D+01
 Coeff:     -0.688D-01 0.283D+00 0.786D+00
 Gap=     0.338 Goal=   None    Shift=    0.000
 RMSDP=1.69D-04 MaxDP=9.15D-03 DE=-9.66D-02 OVMax= 1.38D-02

 Cycle   4  Pass 1  IDiag  1:
 RMSU=  1.52D-04    CP:  9.56D-01  1.04D+00  9.91D-01
 E= -233.624619979841     Delta-E=       -0.001285187043 Rises=F Damp=F
 DIIS: error= 1.63D-03 at cycle   4 NSaved=   4.
 NSaved= 4 IEnMin= 4 EnMin= -233.624619979841     IErMin= 4 ErrMin= 1.63D-03
 ErrMax= 1.63D-03  0.00D+00 EMaxC= 1.00D-01 BMatC= 8.33D-04 BMatP= 2.36D-03
 IDIUse=3 WtCom= 9.84D-01 WtEn= 1.63D-02
 Coeff-Com: -0.252D-01 0.695D-01 0.405D+00 0.551D+00
 Coeff-En:   0.000D+00 0.000D+00 0.202D+00 0.798D+00
 Coeff:     -0.248D-01 0.684D-01 0.402D+00 0.555D+00
 Gap=     0.344 Goal=   None    Shift=    0.000
 RMSDP=6.60D-05 MaxDP=4.34D-03 DE=-1.29D-03 OVMax= 5.57D-03

 Cycle   5  Pass 1  IDiag  1:
 RMSU=  4.03D-05    CP:  9.56D-01  1.03D+00  1.00D+00  6.70D-01
 E= -233.625198506333     Delta-E=       -0.000578526492 Rises=F Damp=F
 DIIS: error= 2.72D-04 at cycle   5 NSaved=   5.
 NSaved= 5 IEnMin= 5 EnMin= -233.625198506333     IErMin= 5 ErrMin= 2.72D-04
 ErrMax= 2.72D-04  0.00D+00 EMaxC= 1.00D-01 BMatC= 1.73D-05 BMatP= 8.33D-04
 IDIUse=3 WtCom= 9.97D-01 WtEn= 2.72D-03
 Coeff-Com: -0.362D-02 0.630D-02 0.921D-01 0.191D+00 0.714D+00
 Coeff-En:   0.000D+00 0.000D+00 0.000D+00 0.000D+00 0.100D+01
 Coeff:     -0.361D-02 0.628D-02 0.918D-01 0.191D+00 0.715D+00
 Gap=     0.344 Goal=   None    Shift=    0.000
 RMSDP=1.52D-05 MaxDP=5.58D-04 DE=-5.79D-04 OVMax= 7.50D-04

 Cycle   6  Pass 1  IDiag  1:
 RMSU=  1.42D-05    CP:  9.56D-01  1.02D+00  1.01D+00  6.83D-01  9.26D-01
 E= -233.625210312433     Delta-E=       -0.000011806100 Rises=F Damp=F
 DIIS: error= 5.29D-05 at cycle   6 NSaved=   6.
 NSaved= 6 IEnMin= 6 EnMin= -233.625210312433     IErMin= 6 ErrMin= 5.29D-05
 ErrMax= 5.29D-05  0.00D+00 EMaxC= 1.00D-01 BMatC= 1.25D-06 BMatP= 1.73D-05
 IDIUse=1 WtCom= 1.00D+00 WtEn= 0.00D+00
 Coeff-Com:  0.358D-03-0.198D-02 0.112D-01 0.433D-01 0.270D+00 0.678D+00
 Coeff:      0.358D-03-0.198D-02 0.112D-01 0.433D-01 0.270D+00 0.678D+00
 Gap=     0.344 Goal=   None    Shift=    0.000
 RMSDP=3.61D-06 MaxDP=2.25D-04 DE=-1.18D-05 OVMax= 2.64D-04

 Cycle   7  Pass 1  IDiag  1:
 RMSU=  2.99D-06    CP:  9.56D-01  1.02D+00  1.01D+00  6.88D-01  9.69D-01
                    CP:  9.77D-01
 E= -233.625211380416     Delta-E=       -0.000001067983 Rises=F Damp=F
 DIIS: error= 1.91D-05 at cycle   7 NSaved=   7.
 NSaved= 7 IEnMin= 7 EnMin= -233.625211380416     IErMin= 7 ErrMin= 1.91D-05
 ErrMax= 1.91D-05  0.00D+00 EMaxC= 1.00D-01 BMatC= 8.36D-08 BMatP= 1.25D-06
 IDIUse=1 WtCom= 1.00D+00 WtEn= 0.00D+00
 Coeff-Com:  0.602D-03-0.140D-02-0.899D-02-0.114D-01-0.197D-01 0.185D+00
 Coeff-Com:  0.856D+00
 Coeff:      0.602D-03-0.140D-02-0.899D-02-0.114D-01-0.197D-01 0.185D+00
 Coeff:      0.856D+00
 Gap=     0.344 Goal=   None    Shift=    0.000
 RMSDP=1.94D-06 MaxDP=7.01D-05 DE=-1.07D-06 OVMax= 7.78D-05

 Cycle   8  Pass 1  IDiag  1:
 RMSU=  1.10D-06    CP:  9.56D-01  1.02D+00  1.01D+00  6.90D-01  9.85D-01
                    CP:  1.06D+00  1.01D+00
 E= -233.625211461431     Delta-E=       -0.000000081015 Rises=F Damp=F
 DIIS: error= 2.82D-06 at cycle   8 NSaved=   8.
 NSaved= 8 IEnMin= 8 EnMin= -233.625211461431     IErMin= 8 ErrMin= 2.82D-06
 ErrMax= 2.82D-06  0.00D+00 EMaxC= 1.00D-01 BMatC= 2.23D-09 BMatP= 8.36D-08
 IDIUse=1 WtCom= 1.00D+00 WtEn= 0.00D+00
 Coeff-Com:  0.107D-03-0.229D-03-0.248D-02-0.403D-02-0.142D-01 0.183D-01
 Coeff-Com:  0.190D+00 0.813D+00
 Coeff:      0.107D-03-0.229D-03-0.248D-02-0.403D-02-0.142D-01 0.183D-01
 Coeff:      0.190D+00 0.813D+00
 Gap=     0.344 Goal=   None    Shift=    0.000
 RMSDP=3.05D-07 MaxDP=1.06D-05 DE=-8.10D-08 OVMax= 1.26D-05

 Cycle   9  Pass 1  IDiag  1:
 RMSU=  2.41D-07    CP:  9.56D-01  1.02D+00  1.01D+00  6.90D-01  9.85D-01
                    CP:  1.06D+00  1.03D+00  1.01D+00
 E= -233.625211463779     Delta-E=       -0.000000002348 Rises=F Damp=F
 DIIS: error= 5.96D-07 at cycle   9 NSaved=   9.
 NSaved= 9 IEnMin= 9 EnMin= -233.625211463779     IErMin= 9 ErrMin= 5.96D-07
 ErrMax= 5.96D-07  0.00D+00 EMaxC= 1.00D-01 BMatC= 1.36D-10 BMatP= 2.23D-09
 IDIUse=1 WtCom= 1.00D+00 WtEn= 0.00D+00
 Coeff-Com: -0.156D-04 0.346D-04-0.208D-04-0.177D-03-0.136D-02-0.547D-02
 Coeff-Com: -0.110D-01 0.161D+00 0.857D+00
 Coeff:     -0.156D-04 0.346D-04-0.208D-04-0.177D-03-0.136D-02-0.547D-02
 Coeff:     -0.110D-01 0.161D+00 0.857D+00
 Gap=     0.344 Goal=   None    Shift=    0.000
 RMSDP=8.53D-08 MaxDP=2.98D-06 DE=-2.35D-09 OVMax= 3.84D-06

 Cycle  10  Pass 1  IDiag  1:
 RMSU=  4.45D-08    CP:  9.56D-01  1.02D+00  1.01D+00  6.90D-01  9.85D-01
                    CP:  1.06D+00  1.03D+00  1.07D+00  1.06D+00
 E= -233.625211463917     Delta-E=       -0.000000000138 Rises=F Damp=F
 DIIS: error= 2.29D-07 at cycle  10 NSaved=  10.
 NSaved=10 IEnMin=10 EnMin= -233.625211463917     IErMin=10 ErrMin= 2.29D-07
 ErrMax= 2.29D-07  0.00D+00 EMaxC= 1.00D-01 BMatC= 2.01D-11 BMatP= 1.36D-10
 IDIUse=1 WtCom= 1.00D+00 WtEn= 0.00D+00
 Coeff-Com: -0.108D-04 0.238D-04 0.120D-03 0.146D-03 0.330D-03-0.285D-02
 Coeff-Com: -0.146D-01 0.114D-01 0.322D+00 0.683D+00
 Coeff:     -0.108D-04 0.238D-04 0.120D-03 0.146D-03 0.330D-03-0.285D-02
 Coeff:     -0.146D-01 0.114D-01 0.322D+00 0.683D+00
 Gap=     0.344 Goal=   None    Shift=    0.000
 RMSDP=1.57D-08 MaxDP=9.82D-07 DE=-1.38D-10 OVMax= 1.01D-06

 Cycle  11  Pass 1  IDiag  1:
 RMSU=  1.19D-08    CP:  9.56D-01  1.02D+00  1.01D+00  6.90D-01  9.85D-01
                    CP:  1.06D+00  1.03D+00  1.07D+00  1.09D+00  9.23D-01
 E= -233.625211463944     Delta-E=       -0.000000000027 Rises=F Damp=F
 DIIS: error= 3.78D-08 at cycle  11 NSaved=  11.
 NSaved=11 IEnMin=11 EnMin= -233.625211463944     IErMin=11 ErrMin= 3.78D-08
 ErrMax= 3.78D-08  0.00D+00 EMaxC= 1.00D-01 BMatC= 7.20D-13 BMatP= 2.01D-11
 IDIUse=1 WtCom= 1.00D+00 WtEn= 0.00D+00
 Coeff-Com: -0.288D-06 0.115D-05 0.205D-04 0.339D-04 0.156D-03-0.101D-03
 Coeff-Com: -0.197D-02-0.107D-01-0.181D-02 0.134D+00 0.881D+00
 Coeff:     -0.288D-06 0.115D-05 0.205D-04 0.339D-04 0.156D-03-0.101D-03
 Coeff:     -0.197D-02-0.107D-01-0.181D-02 0.134D+00 0.881D+00
 Gap=     0.344 Goal=   None    Shift=    0.000
 RMSDP=5.67D-09 MaxDP=1.70D-07 DE=-2.70D-11 OVMax= 3.91D-07

 SCF Done:  E(RM062X) =  -233.625211464     A.U. after   11 cycles
            NFock= 11  Conv=0.57D-08     -V/T= 2.0040
 KE= 2.326910712129D+02 PE=-9.390862855088D+02 EE= 2.753604512797D+02
 Leave Link  502 at Tue Apr 23 21:47:16 2019, MaxMem=   671088640 cpu:             495.4 elap:              24.8
 (Enter /shared/centos7/gaussian/g16/l801.exe)
 DoSCS=F DFT=T ScalE2(SS,OS)=  1.000000  1.000000
 Range of M.O.s used for correlation:     1   260
 NBasis=   260 NAE=    21 NBE=    21 NFC=     0 NFV=     0
 NROrb=    260 NOA=    21 NOB=    21 NVA=   239 NVB=   239

 **** Warning!!: The largest alpha MO coefficient is  0.40176566D+02

 Leave Link  801 at Tue Apr 23 21:47:17 2019, MaxMem=   671088640 cpu:               0.4 elap:               0.0
 (Enter /shared/centos7/gaussian/g16/l1101.exe)
 Using compressed storage, NAtomX=    15.
 Will process     16 centers per pass.
 Leave Link 1101 at Tue Apr 23 21:47:17 2019, MaxMem=   671088640 cpu:               5.9 elap:               0.3
 (Enter /shared/centos7/gaussian/g16/l1102.exe)
 Symmetrizing basis deriv contribution to polar:
 IMax=3 JMax=2 DiffMx= 0.00D+00
 Leave Link 1102 at Tue Apr 23 21:47:17 2019, MaxMem=   671088640 cpu:               0.6 elap:               0.1
 (Enter /shared/centos7/gaussian/g16/l1110.exe)
 Forming Gx(P) for the SCF density, NAtomX=    15.
 Integral derivatives from FoFJK, PRISM(SPDF).
 Do as many integral derivatives as possible in FoFJK.
 G2DrvN: MDV=     671087424.
 G2DrvN: will do    16 centers at a time, making    1 passes.
 Calling FoFCou, ICntrl=  3107 FMM=F I1Cent=   0 AccDes= 0.00D+00.
 FoFJK:  IHMeth= 1 ICntrl=    3107 DoSepK=F KAlg= 0 I1Cent=           0 FoldK=F
 IRaf=         0 NMat=       1 IRICut=       1 DoRegI=T DoRafI=F ISym2E= 0 IDoP0=0 IntGTp=1.
 FoFCou: FMM=F IPFlag=           0 FMFlag=      100000 FMFlg1=           0
         NFxFlg=           0 DoJE=F BraDBF=F KetDBF=F FulRan=T
         wScrn=  0.000000 ICntrl=      3107 IOpCl=  0 I1Cent=           0 NGrid=           0
         NMat0=    1 NMatS0=      1 NMatT0=    0 NMatD0=    1 NMtDS0=    0 NMtDT0=    0
 Symmetry not used in FoFCou.
 End of G2Drv F.D. properties file   721 does not exist.
 End of G2Drv F.D. properties file   722 does not exist.
 End of G2Drv F.D. properties file   788 does not exist.
 Leave Link 1110 at Tue Apr 23 21:48:13 2019, MaxMem=   671088640 cpu:            1115.6 elap:              55.8
 (Enter /shared/centos7/gaussian/g16/l1002.exe)
 Minotr:  Closed shell wavefunction.
          IDoAtm=111111111111111
          Direct CPHF calculation.
          Differentiating once with respect to nuclear coordinates.
          Requested convergence is 1.0D-08 RMS, and 1.0D-07 maximum.
          Secondary convergence is 1.0D-12 RMS, and 1.0D-12 maximum.
          NewPWx=T KeepS1=F KeepF1=F KeepIn=T MapXYZ=F SortEE=F KeepMc=T.
         4562 words used for storage of precomputed grid.
 Keep R1 ints in memory in canonical form, NReq=597923364.
 FoFCou: FMM=F IPFlag=           0 FMFlag=           0 FMFlg1=           0
         NFxFlg=           0 DoJE=F BraDBF=F KetDBF=F FulRan=T
         wScrn=  0.000000 ICntrl=       600 IOpCl=  0 I1Cent=           0 NGrid=           0
         NMat0=    1 NMatS0=  33930 NMatT0=    0 NMatD0=    1 NMtDS0=    0 NMtDT0=    0
 Symmetry not used in FoFCou.
 Two-electron integral symmetry not used.
          MDV=     671088640 using IRadAn=       1.
          Solving linear equations simultaneously, MaxMat=       0.
          There are    48 degrees of freedom in the 1st order CPHF.  IDoFFX=6 NUNeed=     0.
     42 vectors produced by pass  0 Test12= 1.05D-14 2.08D-09 XBig12= 6.89D-02 5.88D-02.
 AX will form    42 AO Fock derivatives at one time.
     42 vectors produced by pass  1 Test12= 1.05D-14 2.08D-09 XBig12= 3.05D-03 1.09D-02.
     42 vectors produced by pass  2 Test12= 1.05D-14 2.08D-09 XBig12= 6.46D-05 1.06D-03.
     42 vectors produced by pass  3 Test12= 1.05D-14 2.08D-09 XBig12= 4.46D-07 9.78D-05.
     42 vectors produced by pass  4 Test12= 1.05D-14 2.08D-09 XBig12= 2.64D-09 5.18D-06.
     42 vectors produced by pass  5 Test12= 1.05D-14 2.08D-09 XBig12= 1.23D-11 3.70D-07.
     19 vectors produced by pass  6 Test12= 1.05D-14 2.08D-09 XBig12= 4.67D-14 1.75D-08.
 InvSVY:  IOpt=1 It=  1 EMax= 2.11D-15
 Solved reduced A of dimension   271 with    42 vectors.
 End of Minotr F.D. properties file   721 does not exist.
 End of Minotr F.D. properties file   722 does not exist.
 End of Minotr F.D. properties file   788 does not exist.
 Leave Link 1002 at Tue Apr 23 21:49:14 2019, MaxMem=   671088640 cpu:            1219.2 elap:              61.4
 (Enter /shared/centos7/gaussian/g16/l601.exe)
 Copying SCF densities to generalized density rwf, IOpCl= 0 IROHF=0.

 **********************************************************************

            Population analysis using the SCF density.

 **********************************************************************

 Orbital symmetries:
       Occupied  (A) (A) (A) (A) (A) (A) (A) (A) (A) (A) (A) (A)
                 (A) (A) (A) (A) (A) (A) (A) (A) (A)
       Virtual   (A) (A) (A) (A) (A) (A) (A) (A) (A) (A) (A) (A)
                 (A) (A) (A) (A) (A) (A) (A) (A) (A) (A) (A) (A)
                 (A) (A) (A) (A) (A) (A) (A) (A) (A) (A) (A) (A)
                 (A) (A) (A) (A) (A) (A) (A) (A) (A) (A) (A) (A)
                 (A) (A) (A) (A) (A) (A) (A) (A) (A) (A) (A) (A)
                 (A) (A) (A) (A) (A) (A) (A) (A) (A) (A) (A) (A)
                 (A) (A) (A) (A) (A) (A) (A) (A) (A) (A) (A) (A)
                 (A) (A) (A) (A) (A) (A) (A) (A) (A) (A) (A) (A)
                 (A) (A) (A) (A) (A) (A) (A) (A) (A) (A) (A) (A)
                 (A) (A) (A) (A) (A) (A) (A) (A) (A) (A) (A) (A)
                 (A) (A) (A) (A) (A) (A) (A) (A) (A) (A) (A) (A)
                 (A) (A) (A) (A) (A) (A) (A) (A) (A) (A) (A) (A)
                 (A) (A) (A) (A) (A) (A) (A) (A) (A) (A) (A) (A)
                 (A) (A) (A) (A) (A) (A) (A) (A) (A) (A) (A) (A)
                 (A) (A) (A) (A) (A) (A) (A) (A) (A) (A) (A) (A)
                 (A) (A) (A) (A) (A) (A) (A) (A) (A) (A) (A) (A)
                 (A) (A) (A) (A) (A) (A) (A) (A) (A) (A) (A) (A)
                 (A) (A) (A) (A) (A) (A) (A) (A) (A) (A) (A) (A)
                 (A) (A) (A) (A) (A) (A) (A) (A) (A) (A) (A) (A)
                 (A) (A) (A) (A) (A) (A) (A) (A) (A) (A) (A)
 The electronic state is 1-A.
 Alpha  occ. eigenvalues --  -19.61883 -10.58475 -10.57200 -10.52259 -10.51896
 Alpha  occ. eigenvalues --   -1.15676  -0.88286  -0.78896  -0.76366  -0.66215
 Alpha  occ. eigenvalues --   -0.57209  -0.53943  -0.53432  -0.49720  -0.46117
 Alpha  occ. eigenvalues --   -0.45467  -0.44151  -0.41440  -0.40884  -0.37592
 Alpha  occ. eigenvalues --   -0.32738
 Alpha virt. eigenvalues --    0.01674   0.03002   0.03482   0.03958   0.05589
 Alpha virt. eigenvalues --    0.06606   0.06978   0.07604   0.07801   0.09522
 Alpha virt. eigenvalues --    0.10167   0.11183   0.12179   0.13180   0.13690
 Alpha virt. eigenvalues --    0.15495   0.18059   0.19590   0.21181   0.21799
 Alpha virt. eigenvalues --    0.22749   0.24521   0.25188   0.25611   0.26141
 Alpha virt. eigenvalues --    0.27208   0.27494   0.28554   0.29741   0.30458
 Alpha virt. eigenvalues --    0.31497   0.34302   0.36530   0.38603   0.40325
 Alpha virt. eigenvalues --    0.42697   0.44725   0.45123   0.49520   0.50393
 Alpha virt. eigenvalues --    0.51029   0.53032   0.53967   0.55597   0.56470
 Alpha virt. eigenvalues --    0.56654   0.57808   0.58920   0.59430   0.60701
 Alpha virt. eigenvalues --    0.62106   0.62340   0.63762   0.65734   0.67909
 Alpha virt. eigenvalues --    0.70259   0.70730   0.71810   0.74083   0.77105
 Alpha virt. eigenvalues --    0.80322   0.83183   0.86118   0.88975   0.89524
 Alpha virt. eigenvalues --    0.91546   0.95860   0.97286   0.98253   1.00250
 Alpha virt. eigenvalues --    1.03923   1.05488   1.07278   1.08075   1.10301
 Alpha virt. eigenvalues --    1.12261   1.13267   1.13959   1.17018   1.17335
 Alpha virt. eigenvalues --    1.19518   1.20950   1.22054   1.22936   1.24825
 Alpha virt. eigenvalues --    1.26197   1.29900   1.30119   1.31131   1.32787
 Alpha virt. eigenvalues --    1.34588   1.35537   1.37577   1.38873   1.39767
 Alpha virt. eigenvalues --    1.40993   1.42284   1.44590   1.46575   1.48092
 Alpha virt. eigenvalues --    1.49167   1.50857   1.52245   1.54200   1.56811
 Alpha virt. eigenvalues --    1.58777   1.61193   1.61955   1.62065   1.65839
 Alpha virt. eigenvalues --    1.68458   1.69546   1.75904   1.86401   2.05522
 Alpha virt. eigenvalues --    2.11578   2.11950   2.25240   2.37488   2.39953
 Alpha virt. eigenvalues --    2.41321   2.47891   2.54513   2.55483   2.59987
 Alpha virt. eigenvalues --    2.62468   2.66045   2.70916   2.73033   2.77720
 Alpha virt. eigenvalues --    2.82582   2.88754   2.90941   2.96092   2.97496
 Alpha virt. eigenvalues --    2.99080   3.00502   3.03311   3.04182   3.08561
 Alpha virt. eigenvalues --    3.10466   3.12982   3.13820   3.14916   3.17390
 Alpha virt. eigenvalues --    3.19665   3.21578   3.23711   3.26870   3.29914
 Alpha virt. eigenvalues --    3.31938   3.34531   3.36983   3.38022   3.38873
 Alpha virt. eigenvalues --    3.42364   3.43861   3.46723   3.49792   3.52629
 Alpha virt. eigenvalues --    3.54031   3.56854   3.58314   3.61676   3.61869
 Alpha virt. eigenvalues --    3.64908   3.70964   3.72525   3.75796   3.78025
 Alpha virt. eigenvalues --    3.81275   3.81892   3.85062   3.87707   3.90015
 Alpha virt. eigenvalues --    3.93306   3.95442   3.99091   4.00966   4.02054
 Alpha virt. eigenvalues --    4.03632   4.07810   4.08120   4.12914   4.17610
 Alpha virt. eigenvalues --    4.18802   4.19755   4.20853   4.21749   4.23376
 Alpha virt. eigenvalues --    4.25054   4.26527   4.29136   4.30332   4.32839
 Alpha virt. eigenvalues --    4.35567   4.37055   4.39593   4.44859   4.49942
 Alpha virt. eigenvalues --    4.50737   4.51519   4.55449   4.57056   4.60060
 Alpha virt. eigenvalues --    4.61395   4.65457   4.72879   4.82901   4.94127
 Alpha virt. eigenvalues --    5.19290   5.27587   5.29844   5.33803   5.41939
 Alpha virt. eigenvalues --    5.48185   5.53711   5.56229   5.59054   5.61026
 Alpha virt. eigenvalues --    5.61591   5.64338   5.66914   5.69680   5.84078
 Alpha virt. eigenvalues --    5.91626   6.23273   6.50648   6.73829   7.21133
 Alpha virt. eigenvalues --    7.23074   7.36743   7.73314   7.78548  24.33086
 Alpha virt. eigenvalues --   24.41833  24.45379  24.51791  50.20678
          Condensed to atoms (all electrons):
               1          2          3          4          5          6
     1  O    8.244190   0.230924  -0.128511  -0.128101   0.110731  -0.043088
     2  C    0.230924   5.313850   0.172562   0.320977  -0.107366   0.467079
     3  C   -0.128511   0.172562   5.283903  -0.123950   0.015708  -0.066265
     4  C   -0.128101   0.320977  -0.123950   5.180315  -0.020010  -0.023952
     5  C    0.110731  -0.107366   0.015708  -0.020010   4.986497  -0.010216
     6  H   -0.043088   0.467079  -0.066265  -0.023952  -0.010216   0.520575
     7  H   -0.003709  -0.033546   0.430097  -0.014525  -0.004050   0.005834
     8  H   -0.008185  -0.016706   0.391988   0.008598   0.005215  -0.007413
     9  H    0.009666  -0.043919   0.420020  -0.001339  -0.000984  -0.002257
    10  H    0.013621  -0.047495  -0.009863   0.430025   0.001573  -0.006481
    11  H   -0.005107  -0.028355   0.020010   0.397394  -0.001192  -0.006368
    12  H   -0.010587  -0.006454  -0.016181   0.398732  -0.000692   0.005990
    13  H   -0.051545  -0.003666   0.000482  -0.007803   0.447659  -0.001664
    14  H   -0.044497   0.000672  -0.001660   0.002202   0.421446   0.006207
    15  H   -0.059217   0.010960   0.000171   0.002645   0.429886   0.000201
               7          8          9         10         11         12
     1  O   -0.003709  -0.008185   0.009666   0.013621  -0.005107  -0.010587
     2  C   -0.033546  -0.016706  -0.043919  -0.047495  -0.028355  -0.006454
     3  C    0.430097   0.391988   0.420020  -0.009863   0.020010  -0.016181
     4  C   -0.014525   0.008598  -0.001339   0.430025   0.397394   0.398732
     5  C   -0.004050   0.005215  -0.000984   0.001573  -0.001192  -0.000692
     6  H    0.005834  -0.007413  -0.002257  -0.006481  -0.006368   0.005990
     7  H    0.504078  -0.028742  -0.028478   0.000258  -0.000186   0.002088
     8  H   -0.028742   0.545834  -0.024584   0.000203  -0.000285  -0.000005
     9  H   -0.028478  -0.024584   0.528923   0.000462   0.000124  -0.000536
    10  H    0.000258   0.000203   0.000462   0.532517  -0.022559  -0.032235
    11  H   -0.000186  -0.000285   0.000124  -0.022559   0.521618  -0.025440
    12  H    0.002088  -0.000005  -0.000536  -0.032235  -0.025440   0.526917
    13  H   -0.000083  -0.003341  -0.000154   0.000019   0.000015  -0.000027
    14  H    0.000270  -0.001214   0.000039  -0.000006   0.000019  -0.000001
    15  H   -0.000147   0.000396   0.000045   0.000015  -0.000038   0.000025
              13         14         15
     1  O   -0.051545  -0.044497  -0.059217
     2  C   -0.003666   0.000672   0.010960
     3  C    0.000482  -0.001660   0.000171
     4  C   -0.007803   0.002202   0.002645
     5  C    0.447659   0.421446   0.429886
     6  H   -0.001664   0.006207   0.000201
     7  H   -0.000083   0.000270  -0.000147
     8  H   -0.003341  -0.001214   0.000396
     9  H   -0.000154   0.000039   0.000045
    10  H    0.000019  -0.000006   0.000015
    11  H    0.000015   0.000019  -0.000038
    12  H   -0.000027  -0.000001   0.000025
    13  H    0.575427  -0.052821  -0.028047
    14  H   -0.052821   0.575320  -0.021819
    15  H   -0.028047  -0.021819   0.528863
 Mulliken charges:
               1
     1  O   -0.126583
     2  C   -0.229518
     3  C   -0.388511
     4  C   -0.421209
     5  C   -0.274206
     6  H    0.161818
     7  H    0.170841
     8  H    0.138243
     9  H    0.142972
    10  H    0.139944
    11  H    0.150348
    12  H    0.158407
    13  H    0.125550
    14  H    0.115843
    15  H    0.136060
 Sum of Mulliken charges =  -0.00000
 Mulliken charges with hydrogens summed into heavy atoms:
               1
     1  O   -0.126583
     2  C   -0.067699
     3  C    0.063545
     4  C    0.027490
     5  C    0.103248
 APT charges:
               1
     1  O   -0.069996
     2  C   -0.306609
     3  C   -1.085551
     4  C   -1.188005
     5  C   -1.202600
     6  H    0.358126
     7  H    0.344782
     8  H    0.347732
     9  H    0.441663
    10  H    0.450638
    11  H    0.383409
    12  H    0.340012
    13  H    0.331651
    14  H    0.327899
    15  H    0.526850
 Sum of APT charges =  -0.00000
 APT charges with hydrogens summed into heavy atoms:
               1
     1  O   -0.069996
     2  C    0.051517
     3  C    0.048627
     4  C   -0.013947
     5  C   -0.016199
 Electronic spatial extent (au):  <R**2>=            501.4204
 Charge=             -0.0000 electrons
 Dipole moment (field-independent basis, Debye):
    X=              0.0422    Y=              0.9839    Z=              0.8432  Tot=              1.2965
 Quadrupole moment (field-independent basis, Debye-Ang):
   XX=            -30.8133   YY=            -34.5545   ZZ=            -33.7825
   XY=              0.3859   XZ=              0.2440   YZ=             -0.6260
 Traceless Quadrupole moment (field-independent basis, Debye-Ang):
   XX=              2.2368   YY=             -1.5044   ZZ=             -0.7324
   XY=              0.3859   XZ=              0.2440   YZ=             -0.6260
 Octapole moment (field-independent basis, Debye-Ang**2):
  XXX=              8.8253  YYY=             -2.7359  ZZZ=             -1.0565  XYY=              1.0514
  XXY=             -1.3282  XXZ=             -0.1274  XZZ=              0.4215  YZZ=             -0.5079
  YYZ=              0.2679  XYZ=             -0.4102
 Hexadecapole moment (field-independent basis, Debye-Ang**3):
 XXXX=           -394.8652 YYYY=           -212.1425 ZZZZ=            -71.9189 XXXY=            -10.1528
 XXXZ=             -6.9442 YYYX=              0.7949 YYYZ=              0.2027 ZZZX=              2.1009
 ZZZY=             -0.5987 XXYY=           -101.0846 XXZZ=            -79.5332 YYZZ=            -48.3550
 XXYZ=              2.5317 YYXZ=             -1.9114 ZZXY=             -0.8620
 N-N= 1.974095515522D+02 E-N=-9.390862869462D+02  KE= 2.326910712129D+02
  Exact polarizability:   0.000   0.000   0.000   0.000   0.000   0.000
 Approx polarizability:  63.799  -0.230  60.710  -0.286   0.810  61.225
 No NMR shielding tensors so no spin-rotation constants.
 Leave Link  601 at Tue Apr 23 21:49:15 2019, MaxMem=   671088640 cpu:               5.4 elap:               0.3
 (Enter /shared/centos7/gaussian/g16/l701.exe)
 ... and contract with generalized density number  0.
 Compute integral second derivatives.
 Leave Link  701 at Tue Apr 23 21:49:15 2019, MaxMem=   671088640 cpu:               9.6 elap:               0.5
 (Enter /shared/centos7/gaussian/g16/l702.exe)
 L702 exits ... SP integral derivatives will be done elsewhere.
 Leave Link  702 at Tue Apr 23 21:49:15 2019, MaxMem=   671088640 cpu:               0.4 elap:               0.0
 (Enter /shared/centos7/gaussian/g16/l703.exe)
 Integral derivatives from FoFJK, PRISM(SPDF).
 Compute integral second derivatives, UseDBF=F ICtDFT=           0.
 Calling FoFJK, ICntrl=    100147 FMM=F ISym2X=0 I1Cent= 0 IOpClX= 0 NMat=1 NMatS=1 NMatT=0.
 FoFJK:  IHMeth= 1 ICntrl=  100147 DoSepK=F KAlg= 0 I1Cent=           0 FoldK=F
 IRaf=         0 NMat=       1 IRICut=       1 DoRegI=T DoRafI=F ISym2E= 0 IDoP0=0 IntGTp=1.
 FoFCou: FMM=F IPFlag=           0 FMFlag=      100000 FMFlg1=         800
         NFxFlg=           0 DoJE=F BraDBF=F KetDBF=F FulRan=T
         wScrn=  0.000000 ICntrl=    100147 IOpCl=  0 I1Cent=           0 NGrid=           0
         NMat0=    1 NMatS0=      1 NMatT0=    0 NMatD0=    1 NMtDS0=    0 NMtDT0=    0
 Symmetry not used in FoFCou.
 Leave Link  703 at Tue Apr 23 21:50:30 2019, MaxMem=   671088640 cpu:            1495.7 elap:              74.8
 (Enter /shared/centos7/gaussian/g16/l716.exe)
 Dipole        = 1.65895407D-02 3.87105250D-01 3.31756386D-01
 Polarizability= 0.00000000D+00 0.00000000D+00 0.00000000D+00
                 0.00000000D+00 0.00000000D+00 0.00000000D+00
 ***** Axes restored to original set *****
 -------------------------------------------------------------------
 Center     Atomic                   Forces (Hartrees/Bohr)
 Number     Number              X              Y              Z
 -------------------------------------------------------------------
      1        8          -0.000000597   -0.000000837    0.000000533
      2        6          -0.000000210    0.000000418   -0.000000039
      3        6           0.000001239    0.000000400   -0.000000681
      4        6          -0.000000856    0.000001388   -0.000000057
      5        6          -0.000000267   -0.000001822    0.000000693
      6        1          -0.000000568    0.000000720    0.000000022
      7        1           0.000001605    0.000000039   -0.000000729
      8        1           0.000001711   -0.000000253   -0.000000678
      9        1           0.000001499    0.000001395   -0.000001117
     10        1          -0.000000664    0.000002405   -0.000000476
     11        1          -0.000001898    0.000001394    0.000000396
     12        1          -0.000000526    0.000001106   -0.000000130
     13        1           0.000000795   -0.000002173    0.000000354
     14        1          -0.000000530   -0.000001485    0.000000720
     15        1          -0.000000733   -0.000002695    0.000001189
 -------------------------------------------------------------------
 Cartesian Forces:  Max     0.000002695 RMS     0.000001100
 FormGI is forming the generalized inverse of G from B-inverse, IUseBI=4.
 Leave Link  716 at Tue Apr 23 21:50:30 2019, MaxMem=   671088640 cpu:               0.5 elap:               0.0
 (Enter /shared/centos7/gaussian/g16/l103.exe)

 GradGradGradGradGradGradGradGradGradGradGradGradGradGradGradGradGradGrad
 Berny optimization.
 Red2BG is reusing G-inverse.
 Internal  Forces:  Max     0.000000020 RMS     0.000000006
 Search for a local minimum.
 Step number   1 out of a maximum of   73 on scan point     1 out of    37
 All quantities printed in internal units (Hartrees-Bohrs-Radians)
 RMS Force = .57102D-08 SwitMx=.10000D-02 MixMth= 2
 Mixed Optimization -- En-DIIS/RFO-DIIS
 Second derivative matrix not updated -- analytic derivatives used.
 ITU=  0
     Eigenvalues ---    0.01487   0.01854   0.04179   0.04333   0.04463
     Eigenvalues ---    0.04849   0.05383   0.05617   0.08832   0.12025
     Eigenvalues ---    0.12383   0.12567   0.13197   0.13387   0.14131
     Eigenvalues ---    0.14841   0.18254   0.18382   0.19992   0.20512
     Eigenvalues ---    0.25708   0.29026   0.31032   0.31762   0.32590
     Eigenvalues ---    0.33510   0.34116   0.34284   0.34372   0.34610
     Eigenvalues ---    0.34792   0.35101   0.35241   0.39412   0.45263
     Eigenvalues --- 1000.000001000.000001000.000001000.000001000.00000
     Eigenvalues --- 1000.000001000.000001000.000001000.000001000.00000
     Eigenvalues --- 1000.000001000.000001000.000001000.000001000.00000
     Eigenvalues --- 1000.000001000.000001000.000001000.000001000.00000
     Eigenvalues --- 1000.000001000.000001000.000001000.000001000.00000
     Eigenvalues --- 1000.000001000.000001000.00000
 RFO step:  Lambda= 0.00000000D+00 EMin= 1.48740205D-02
 Linear search not attempted -- first point.
 Iteration  1 RMS(Cart)=  0.00000016 RMS(Int)=  0.00000000
 Iteration  1 RMS(Cart)=  0.00000000 RMS(Int)=  0.00000000
 ITry= 1 IFail=0 DXMaxC= 4.66D-07 DCOld= 1.00D+10 DXMaxT= 3.00D-01 DXLimC= 3.00D+00 Rises=F
 Variable       Old X    -DE/DX   Delta X   Delta X   Delta X     New X
                                 (Linear)    (Quad)   (Total)
    R1        2.67539  -0.00000   0.00000   0.00000   0.00000   2.67539
    R2        2.65187  -0.00000   0.00000  -0.00000  -0.00000   2.65187
    R3        2.87851   0.00000   0.00000  -0.00000  -0.00000   2.87851
    R4        2.86451  -0.00000   0.00000   0.00000   0.00000   2.86451
    R5        2.07759   0.00000   0.00000   0.00000   0.00000   2.07759
    R6        2.06155   0.00000   0.00000   0.00000   0.00000   2.06155
    R7        2.05800   0.00000   0.00000   0.00000   0.00000   2.05800
    R8        2.05938  -0.00000   0.00000  -0.00000  -0.00000   2.05938
    R9        2.05861   0.00000   0.00000   0.00000   0.00000   2.05861
   R10        2.05682  -0.00000   0.00000  -0.00000  -0.00000   2.05682
   R11        2.06054   0.00000   0.00000   0.00000   0.00000   2.06054
   R12        2.06653  -0.00000   0.00000  -0.00000  -0.00000   2.06653
   R13        2.07139   0.00000   0.00000   0.00000   0.00000   2.07139
   R14        2.05519   0.00000   0.00000   0.00000   0.00000   2.05519
    A1        2.00014  -0.00000   0.00000  -0.00000  -0.00000   2.00014
    A2        1.95522  -0.00000   0.00000   0.00000   0.00000   1.95522
    A3        1.85646  -0.00000   0.00000  -0.00000  -0.00000   1.85646
    A4        1.89076   0.00000   0.00000  -0.00000  -0.00000   1.89076
    A5        1.94901   0.00000   0.00000   0.00000   0.00000   1.94901
    A6        1.90231   0.00000   0.00000   0.00000   0.00000   1.90231
    A7        1.90863  -0.00000   0.00000  -0.00000  -0.00000   1.90863
    A8        1.91387  -0.00000   0.00000  -0.00000  -0.00000   1.91387
    A9        1.95591   0.00000   0.00000   0.00000   0.00000   1.95591
   A10        1.92150  -0.00000   0.00000  -0.00000  -0.00000   1.92150
   A11        1.89628   0.00000   0.00000   0.00000   0.00000   1.89628
   A12        1.89468  -0.00000   0.00000  -0.00000  -0.00000   1.89468
   A13        1.88027   0.00000   0.00000   0.00000   0.00000   1.88027
   A14        1.93123   0.00000   0.00000   0.00000   0.00000   1.93123
   A15        1.92626  -0.00000   0.00000  -0.00000  -0.00000   1.92626
   A16        1.91521   0.00000   0.00000   0.00000   0.00000   1.91521
   A17        1.90150  -0.00000   0.00000  -0.00000  -0.00000   1.90150
   A18        1.89636  -0.00000   0.00000   0.00000   0.00000   1.89636
   A19        1.89258  -0.00000   0.00000   0.00000   0.00000   1.89258
   A20        1.95826   0.00000   0.00000   0.00000   0.00000   1.95826
   A21        1.93986  -0.00000   0.00000  -0.00000  -0.00000   1.93986
   A22        1.87283   0.00000   0.00000   0.00000   0.00000   1.87283
   A23        1.89605  -0.00000   0.00000  -0.00000  -0.00000   1.89605
   A24        1.89537  -0.00000   0.00000  -0.00000  -0.00000   1.89537
   A25        1.90020   0.00000   0.00000  -0.00000  -0.00000   1.90020
    D1        1.16720   0.00000   0.00000   0.00000   0.00000   1.16720
    D2       -2.98190   0.00000   0.00000   0.00000   0.00000  -2.98190
    D3       -0.93172   0.00000   0.00000   0.00000   0.00000  -0.93172
    D4       -1.25307   0.00000   0.00000   0.00000   0.00000  -1.25307
    D5        0.87385   0.00000   0.00000   0.00000   0.00000   0.87385
    D6        2.94962  -0.00000   0.00000   0.00000   0.00000   2.94962
    D7        0.98307   0.00000   0.00000  -0.00000  -0.00000   0.98307
    D8       -1.12429  -0.00000   0.00000  -0.00000  -0.00000  -1.12429
    D9        3.06656  -0.00000   0.00000  -0.00000  -0.00000   3.06656
   D10       -1.09734   0.00000   0.00000  -0.00000  -0.00000  -1.09734
   D11        3.07849  -0.00000   0.00000  -0.00000  -0.00000   3.07849
   D12        0.98615  -0.00000   0.00000  -0.00000  -0.00000   0.98615
   D13        3.07525   0.00000   0.00000   0.00000   0.00000   3.07525
   D14        0.96789   0.00000   0.00000   0.00000   0.00000   0.96789
   D15       -1.12444   0.00000   0.00000   0.00000   0.00000  -1.12444
   D16        3.09055  -0.00000   0.00000  -0.00000  -0.00000   3.09055
   D17        0.98450  -0.00000   0.00000  -0.00000  -0.00000   0.98450
   D18       -1.10018  -0.00000   0.00000  -0.00000  -0.00000  -1.10018
   D19       -1.05463  -0.00000   0.00000  -0.00000  -0.00000  -1.05463
   D20        3.12251  -0.00000   0.00000  -0.00000  -0.00000   3.12251
   D21        1.03783   0.00000   0.00000  -0.00000  -0.00000   1.03783
   D22        1.05228  -0.00000   0.00000  -0.00000  -0.00000   1.05228
   D23       -1.05377  -0.00000   0.00000   0.00000  -0.00000  -1.05377
   D24       -3.13845   0.00000   0.00000  -0.00000  -0.00000  -3.13845
         Item               Value     Threshold  Converged?
 Maximum Force            0.000000     0.000450     YES
 RMS     Force            0.000000     0.000300     YES
 Maximum Displacement     0.000000     0.001800     YES
 RMS     Displacement     0.000000     0.001200     YES
 Predicted change in Energy=-8.781520D-15
 Optimization completed.
    -- Stationary point found.
                           ----------------------------
                           !   Optimized Parameters   !
                           ! (Angstroms and Degrees)  !
 --------------------------                            --------------------------
 ! Name  Definition              Value          Derivative Info.                !
 --------------------------------------------------------------------------------
 ! R1    R(1,2)                  1.4158         -DE/DX =    0.0                 !
 ! R2    R(1,5)                  1.4033         -DE/DX =    0.0                 !
 ! R3    R(2,3)                  1.5232         -DE/DX =    0.0                 !
 ! R4    R(2,4)                  1.5158         -DE/DX =    0.0                 !
 ! R5    R(2,6)                  1.0994         -DE/DX =    0.0                 !
 ! R6    R(3,7)                  1.0909         -DE/DX =    0.0                 !
 ! R7    R(3,8)                  1.089          -DE/DX =    0.0                 !
 ! R8    R(3,9)                  1.0898         -DE/DX =    0.0                 !
 ! R9    R(4,10)                 1.0894         -DE/DX =    0.0                 !
 ! R10   R(4,11)                 1.0884         -DE/DX =    0.0                 !
 ! R11   R(4,12)                 1.0904         -DE/DX =    0.0                 !
 ! R12   R(5,13)                 1.0936         -DE/DX =    0.0                 !
 ! R13   R(5,14)                 1.0961         -DE/DX =    0.0                 !
 ! R14   R(5,15)                 1.0876         -DE/DX =    0.0                 !
 ! A1    A(2,1,5)              114.5994         -DE/DX =    0.0                 !
 ! A2    A(1,2,3)              112.0256         -DE/DX =    0.0                 !
 ! A3    A(1,2,4)              106.3672         -DE/DX =    0.0                 !
 ! A4    A(1,2,6)              108.3324         -DE/DX =    0.0                 !
 ! A5    A(3,2,4)              111.6702         -DE/DX =    0.0                 !
 ! A6    A(3,2,6)              108.9941         -DE/DX =    0.0                 !
 ! A7    A(4,2,6)              109.3567         -DE/DX =    0.0                 !
 ! A8    A(2,3,7)              109.6568         -DE/DX =    0.0                 !
 ! A9    A(2,3,8)              112.0657         -DE/DX =    0.0                 !
 ! A10   A(2,3,9)              110.0941         -DE/DX =    0.0                 !
 ! A11   A(7,3,8)              108.6488         -DE/DX =    0.0                 !
 ! A12   A(7,3,9)              108.5573         -DE/DX =    0.0                 !
 ! A13   A(8,3,9)              107.7313         -DE/DX =    0.0                 !
 ! A14   A(2,4,10)             110.6511         -DE/DX =    0.0                 !
 ! A15   A(2,4,11)             110.3663         -DE/DX =    0.0                 !
 ! A16   A(2,4,12)             109.7335         -DE/DX =    0.0                 !
 ! A17   A(10,4,11)            108.948          -DE/DX =    0.0                 !
 ! A18   A(10,4,12)            108.6532         -DE/DX =    0.0                 !
 ! A19   A(11,4,12)            108.4369         -DE/DX =    0.0                 !
 ! A20   A(1,5,13)             112.1999         -DE/DX =    0.0                 !
 ! A21   A(1,5,14)             111.1458         -DE/DX =    0.0                 !
 ! A22   A(1,5,15)             107.3052         -DE/DX =    0.0                 !
 ! A23   A(13,5,14)            108.6358         -DE/DX =    0.0                 !
 ! A24   A(13,5,15)            108.5968         -DE/DX =    0.0                 !
 ! A25   A(14,5,15)            108.8734         -DE/DX =    0.0                 !
 ! D1    D(5,1,2,3)             66.8754         -DE/DX =    0.0                 !
 ! D2    D(5,1,2,4)           -170.8503         -DE/DX =    0.0                 !
 ! D3    D(5,1,2,6)            -53.3837         -DE/DX =    0.0                 !
 ! D4    D(2,1,5,13)           -71.7954         -DE/DX =    0.0                 !
 ! D5    D(2,1,5,14)            50.0681         -DE/DX =    0.0                 !
 ! D6    D(2,1,5,15)           169.001          -DE/DX =    0.0                 !
 ! D7    D(1,2,3,7)             56.326          -DE/DX =    0.0                 !
 ! D8    D(1,2,3,8)            -64.4168         -DE/DX =    0.0                 !
 ! D9    D(1,2,3,9)            175.7012         -DE/DX =    0.0                 !
 ! D10   D(4,2,3,7)            -62.8728         -DE/DX =    0.0                 !
 ! D11   D(4,2,3,8)            176.3844         -DE/DX =    0.0                 !
 ! D12   D(4,2,3,9)             56.5024         -DE/DX =    0.0                 !
 ! D13   D(6,2,3,7)            176.199          -DE/DX =    0.0                 !
 ! D14   D(6,2,3,8)             55.4562         -DE/DX =    0.0                 !
 ! D15   D(6,2,3,9)            -64.4258         -DE/DX =    0.0                 !
 ! D16   D(1,2,4,10)           177.0752         -DE/DX =    0.0                 !
 ! D17   D(1,2,4,11)            56.4075         -DE/DX =    0.0                 !
 ! D18   D(1,2,4,12)           -63.0356         -DE/DX =    0.0                 !
 ! D19   D(3,2,4,10)           -60.4258         -DE/DX =    0.0                 !
 ! D20   D(3,2,4,11)           178.9065         -DE/DX =    0.0                 !
 ! D21   D(3,2,4,12)            59.4633         -DE/DX =    0.0                 !
 ! D22   D(6,2,4,10)            60.2911         -DE/DX =    0.0                 !
 ! D23   D(6,2,4,11)           -60.3766         -DE/DX =    0.0                 !
 ! D24   D(6,2,4,12)          -179.8198         -DE/DX =    0.0                 !
 --------------------------------------------------------------------------------
 Lowest energy point so far.  Saving SCF results.
 Iteration  1 RMS(Cart)=  0.02538375 RMS(Int)=  0.01420155
 Iteration  2 RMS(Cart)=  0.00125635 RMS(Int)=  0.01415146
 Iteration  3 RMS(Cart)=  0.00006224 RMS(Int)=  0.01415142
 Iteration  4 RMS(Cart)=  0.00000316 RMS(Int)=  0.01415142
 Iteration  5 RMS(Cart)=  0.00000022 RMS(Int)=  0.01415142
 Iteration  1 RMS(Cart)=  0.01055692 RMS(Int)=  0.00584930
 Iteration  2 RMS(Cart)=  0.00437778 RMS(Int)=  0.00651710
 Iteration  3 RMS(Cart)=  0.00180777 RMS(Int)=  0.00712167
 Iteration  4 RMS(Cart)=  0.00074513 RMS(Int)=  0.00741202
 Iteration  5 RMS(Cart)=  0.00030688 RMS(Int)=  0.00753760
 Iteration  6 RMS(Cart)=  0.00012635 RMS(Int)=  0.00759025
 Iteration  7 RMS(Cart)=  0.00005201 RMS(Int)=  0.00761209
 Iteration  8 RMS(Cart)=  0.00002141 RMS(Int)=  0.00762110
 Iteration  9 RMS(Cart)=  0.00000881 RMS(Int)=  0.00762482
 Iteration 10 RMS(Cart)=  0.00000363 RMS(Int)=  0.00762635
 Iteration 11 RMS(Cart)=  0.00000149 RMS(Int)=  0.00762698
 Iteration 12 RMS(Cart)=  0.00000061 RMS(Int)=  0.00762723
 GradGradGradGradGradGradGradGradGradGradGradGradGradGradGradGradGradGrad

 Leave Link  103 at Tue Apr 23 21:50:30 2019, MaxMem=   671088640 cpu:               1.0 elap:               0.1
 (Enter /shared/centos7/gaussian/g16/l202.exe)
                          Input orientation:                          
 ---------------------------------------------------------------------
 Center     Atomic      Atomic             Coordinates (Angstroms)
 Number     Number       Type             X           Y           Z
 ---------------------------------------------------------------------
      1          8           0        0.678002   -0.647389   -0.285183
      2          6           0       -0.425422   -0.010669    0.332431
      3          6           0       -0.572914    1.437908   -0.114972
      4          6           0       -1.647616   -0.833645   -0.023526
      5          6           0        1.931271   -0.143992    0.095847
      6          1           0       -0.273963   -0.035287    1.421092
      7          1           0       -0.656279    1.479604   -1.201916
      8          1           0        0.273922    2.049478    0.193053
      9          1           0       -1.472493    1.874018    0.318853
     10          1           0       -2.536163   -0.431699    0.461936
     11          1           0       -1.511870   -1.867672    0.287984
     12          1           0       -1.801751   -0.816033   -1.102831
     13          1           0        2.060513    0.872945   -0.285305
     14          1           0        2.078675   -0.129639    1.182031
     15          1           0        2.689062   -0.722760   -0.429016
 ---------------------------------------------------------------------
                    Distance matrix (angstroms):
                    1          2          3          4          5
     1  O    0.000000
     2  C    1.415770   0.000000
     3  C    2.437669   1.523253   0.000000
     4  C    2.347692   1.515834   2.514617   0.000000
     5  C    1.403308   2.372288   2.969477   3.646684   0.000000
     6  H    2.047506   1.099422   2.149225   2.147375   2.575102
     7  H    2.672977   2.151378   1.090933   2.778934   3.318986
     8  H    2.768589   2.180071   1.089049   3.471542   2.750921
     9  H    3.368529   2.156059   1.089789   2.734836   3.963295
    10  H    3.306897   2.156216   2.771751   1.089380   4.491633
    11  H    2.571604   2.151930   3.459894   1.088429   3.855283
    12  H    2.616518   2.145430   2.750665   1.090398   3.977929
    13  H    2.054934   2.709658   2.698729   4.090379   1.093683
    14  H    2.093481   2.646974   3.342206   3.979225   1.096234
    15  H    2.017605   3.284339   3.925251   4.357005   1.088439
                    6          7          8          9         10
     6  H    0.000000
     7  H    3.053069   0.000000
     8  H    2.480827   1.770866   0.000000
     9  H    2.509353   1.770454   1.759709   0.000000
    10  H    2.488910   3.155225   3.758339   2.543265   0.000000
    11  H    2.484750   3.762458   4.306056   3.742024   1.772415
    12  H    3.051866   2.567464   3.768140   3.060387   1.770754
    13  H    3.030917   2.930728   2.192023   3.721464   4.836311
    14  H    2.366634   3.968984   2.997292   4.167795   4.680439
    15  H    3.560201   4.079103   3.728964   4.961966   5.308624
                   11         12         13         14         15
    11  H    0.000000
    12  H    1.767580   0.000000
    13  H    4.538895   4.293959   0.000000
    14  H    4.088042   4.555154   1.777240   0.000000
    15  H    4.412792   4.542039   1.721046   1.822041   0.000000
 Stoichiometry    C4H10O
 Framework group  C1[X(C4H10O)]
 Deg. of freedom    39
 Full point group                 C1      NOp   1
 RotChk:  IX=0 Diff= 1.63D-02
 Largest Abelian subgroup         C1      NOp   1
 Largest concise Abelian subgroup C1      NOp   1
                         Standard orientation:                         
 ---------------------------------------------------------------------
 Center     Atomic      Atomic             Coordinates (Angstroms)
 Number     Number       Type             X           Y           Z
 ---------------------------------------------------------------------
      1          8           0        0.677163   -0.638840   -0.302807
      2          6           0       -0.423037   -0.009301    0.327783
      3          6           0       -0.574789    1.443368   -0.104680
      4          6           0       -1.646588   -0.830119   -0.028495
      5          6           0        1.932270   -0.137794    0.075262
      6          1           0       -0.264771   -0.044264    1.415192
      7          1           0       -0.664970    1.495464   -1.190630
      8          1           0        0.273327    2.052848    0.203963
      9          1           0       -1.472091    1.874300    0.338927
     10          1           0       -2.532501   -0.433836    0.466346
     11          1           0       -1.507851   -1.866958    0.272161
     12          1           0       -1.807465   -0.802256   -1.106599
     13          1           0        2.058099    0.882915   -0.296846
     14          1           0        2.086425   -0.133768    1.160595
     15          1           0        2.687363   -0.710651   -0.459872
 ---------------------------------------------------------------------
 Rotational constants (GHZ):           7.7327498           3.8486631           2.8519402
 Leave Link  202 at Tue Apr 23 21:50:30 2019, MaxMem=   671088640 cpu:               0.2 elap:               0.0
 (Enter /shared/centos7/gaussian/g16/l301.exe)
 Standard basis: 6-311+G(2df,2p) (5D, 7F)
 Ernie: Thresh=  0.10000D-02 Tol=  0.10000D-05 Strict=F.
 There are   285 symmetry adapted cartesian basis functions of A   symmetry.
 There are   260 symmetry adapted basis functions of A   symmetry.
   260 basis functions,   370 primitive gaussians,   285 cartesian basis functions
    21 alpha electrons       21 beta electrons
       nuclear repulsion energy       197.4224782496 Hartrees.
 IExCor= 4336 DFT=T Ex+Corr=M062X ExCW=0 ScaHFX=  0.540000
 ScaDFX=  1.000000  1.000000  1.000000  1.000000 ScalE2=  1.000000  1.000000
 IRadAn=      5 IRanWt=     -1 IRanGd=            0 ICorTp=0 IEmpDi=  4
 NAtoms=   15 NActive=   15 NUniq=   15 SFac= 1.00D+00 NAtFMM=   60 NAOKFM=F Big=F
 Integral buffers will be    131072 words long.
 Raffenetti 2 integral format.
 Two-electron integral symmetry is turned on.
 Leave Link  301 at Tue Apr 23 21:50:30 2019, MaxMem=   671088640 cpu:               1.3 elap:               0.1
 (Enter /shared/centos7/gaussian/g16/l302.exe)
 NPDir=0 NMtPBC=     1 NCelOv=     1 NCel=       1 NClECP=     1 NCelD=      1
         NCelK=      1 NCelE2=     1 NClLst=     1 CellRange=     0.0.
 One-electron integrals computed using PRISM.
 One-electron integral symmetry used in STVInt
 NBasis=   260 RedAO= T EigKep=  4.56D-05  NBF=   260
 NBsUse=   260 1.00D-06 EigRej= -1.00D+00 NBFU=   260
 Precomputing XC quadrature grid using
 IXCGrd= 4 IRadAn=           5 IRanWt=          -1 IRanGd=           0 AccXCQ= 0.00D+00.
 Generated NRdTot=       0 NPtTot=           0 NUsed=           0 NTot=          32
 NSgBfM=   285   285   285   285   285 MxSgAt=    15 MxSgA2=    15.
 Leave Link  302 at Tue Apr 23 21:50:31 2019, MaxMem=   671088640 cpu:               6.5 elap:               0.4
 (Enter /shared/centos7/gaussian/g16/l303.exe)
 DipDrv:  MaxL=1.
 Leave Link  303 at Tue Apr 23 21:50:31 2019, MaxMem=   671088640 cpu:               0.5 elap:               0.0
 (Enter /shared/centos7/gaussian/g16/l401.exe)
 Initial guess from the checkpoint file:  "/scratch/underkoffler.c/gaussian_scratch/Gau-12742.chk"
 B after Tr=    -0.000000   -0.000000    0.000000
         Rot=    0.999997   -0.001959   -0.000696    0.000990 Ang=  -0.26 deg.
 Guess basis will be translated and rotated to current coordinates.
 JPrj=2 DoOrth=T DoCkMO=T.
 Generating alternative initial guess.
 ExpMin= 4.38D-02 ExpMax= 8.59D+03 ExpMxC= 1.30D+03 IAcc=2 IRadAn=         4 AccDes= 0.00D+00
 Harris functional with IExCor= 1009 and IRadAn=       4 diagonalized for initial guess.
 HarFok:  IExCor= 1009 AccDes= 0.00D+00 IRadAn=         4 IDoV= 1 UseB2=F ITyADJ=14
 ICtDFT=  3500011 ScaDFX=  1.000000  1.000000  1.000000  1.000000
 FoFCou: FMM=F IPFlag=           0 FMFlag=      100000 FMFlg1=           0
         NFxFlg=           0 DoJE=T BraDBF=F KetDBF=T FulRan=T
         wScrn=  0.000000 ICntrl=       500 IOpCl=  0 I1Cent=   200000004 NGrid=           0
         NMat0=    1 NMatS0=      1 NMatT0=    0 NMatD0=    1 NMtDS0=    0 NMtDT0=    0
 Petite list used in FoFCou.
 Harris En= -233.581308296500    
 Leave Link  401 at Tue Apr 23 21:50:31 2019, MaxMem=   671088640 cpu:              11.5 elap:               0.6
 (Enter /shared/centos7/gaussian/g16/l502.exe)
 Integral symmetry usage will be decided dynamically.
 Closed shell SCF:
 Using DIIS extrapolation, IDIIS=  1040.
 NGot=   671088640 LenX=   670917793 LenY=   670836127
 Requested convergence on RMS density matrix=1.00D-08 within 128 cycles.
 Requested convergence on MAX density matrix=1.00D-06.
 Requested convergence on             energy=1.00D-06.
 No special actions if energy rises.
 Fock matrices will be formed incrementally for  20 cycles.

 Cycle   1  Pass 1  IDiag  1:
 FoFJK:  IHMeth= 1 ICntrl=       0 DoSepK=F KAlg= 0 I1Cent=           0 FoldK=F
 IRaf= 980000000 NMat=       1 IRICut=       1 DoRegI=T DoRafI=F ISym2E= 0 IDoP0=0 IntGTp=1.
 FoFCou: FMM=F IPFlag=           0 FMFlag=      100000 FMFlg1=           0
         NFxFlg=           0 DoJE=F BraDBF=F KetDBF=F FulRan=T
         wScrn=  0.000000 ICntrl=         0 IOpCl=  0 I1Cent=           0 NGrid=           0
         NMat0=    1 NMatS0=      1 NMatT0=    0 NMatD0=    1 NMtDS0=    0 NMtDT0=    0
 Symmetry not used in FoFCou.
 E= -233.621731531251    
 DIIS: error= 2.33D-03 at cycle   1 NSaved=   1.
 NSaved= 1 IEnMin= 1 EnMin= -233.621731531251     IErMin= 1 ErrMin= 2.33D-03
 ErrMax= 2.33D-03  0.00D+00 EMaxC= 1.00D-01 BMatC= 1.70D-03 BMatP= 1.70D-03
 IDIUse=3 WtCom= 9.77D-01 WtEn= 2.33D-02
 Coeff-Com:  0.100D+01
 Coeff-En:   0.100D+01
 Coeff:      0.100D+01
 Gap=     0.625 Goal=   None    Shift=    0.000
 GapD=    0.625 DampG=2.000 DampE=1.000 DampFc=2.0000 IDamp=-1.
 RMSDP=1.85D-04 MaxDP=5.76D-03              OVMax= 1.13D-02

 Cycle   2  Pass 1  IDiag  1:
 RMSU=  1.85D-04    CP:  9.99D-01
 E= -233.623959225478     Delta-E=       -0.002227694228 Rises=F Damp=F
 DIIS: error= 4.76D-04 at cycle   2 NSaved=   2.
 NSaved= 2 IEnMin= 2 EnMin= -233.623959225478     IErMin= 2 ErrMin= 4.76D-04
 ErrMax= 4.76D-04  0.00D+00 EMaxC= 1.00D-01 BMatC= 4.51D-05 BMatP= 1.70D-03
 IDIUse=3 WtCom= 9.95D-01 WtEn= 4.76D-03
 Coeff-Com: -0.122D+00 0.112D+01
 Coeff-En:   0.000D+00 0.100D+01
 Coeff:     -0.121D+00 0.112D+01
 Gap=     0.344 Goal=   None    Shift=    0.000
 RMSDP=4.60D-05 MaxDP=1.43D-03 DE=-2.23D-03 OVMax= 3.35D-03

 Cycle   3  Pass 1  IDiag  1:
 RMSU=  3.30D-05    CP:  9.99D-01  1.17D+00
 E= -233.624058677416     Delta-E=       -0.000099451937 Rises=F Damp=F
 DIIS: error= 1.14D-04 at cycle   3 NSaved=   3.
 NSaved= 3 IEnMin= 3 EnMin= -233.624058677416     IErMin= 3 ErrMin= 1.14D-04
 ErrMax= 1.14D-04  0.00D+00 EMaxC= 1.00D-01 BMatC= 3.34D-06 BMatP= 4.51D-05
 IDIUse=3 WtCom= 9.99D-01 WtEn= 1.14D-03
 Coeff-Com: -0.329D-01 0.176D+00 0.857D+00
 Coeff-En:   0.000D+00 0.000D+00 0.100D+01
 Coeff:     -0.329D-01 0.176D+00 0.857D+00
 Gap=     0.343 Goal=   None    Shift=    0.000
 RMSDP=1.17D-05 MaxDP=4.01D-04 DE=-9.95D-05 OVMax= 6.90D-04

 Cycle   4  Pass 1  IDiag  1:
 RMSU=  1.04D-05    CP:  9.99D-01  1.20D+00  9.81D-01
 E= -233.624062736384     Delta-E=       -0.000004058968 Rises=F Damp=F
 DIIS: error= 4.76D-05 at cycle   4 NSaved=   4.
 NSaved= 4 IEnMin= 4 EnMin= -233.624062736384     IErMin= 4 ErrMin= 4.76D-05
 ErrMax= 4.76D-05  0.00D+00 EMaxC= 1.00D-01 BMatC= 7.21D-07 BMatP= 3.34D-06
 IDIUse=1 WtCom= 1.00D+00 WtEn= 0.00D+00
 Coeff-Com:  0.158D-03-0.475D-01 0.282D+00 0.766D+00
 Coeff:      0.158D-03-0.475D-01 0.282D+00 0.766D+00
 Gap=     0.343 Goal=   None    Shift=    0.000
 RMSDP=4.27D-06 MaxDP=1.34D-04 DE=-4.06D-06 OVMax= 3.05D-04

 Cycle   5  Pass 1  IDiag  1:
 RMSU=  3.00D-06    CP:  9.99D-01  1.21D+00  1.06D+00  9.85D-01
 E= -233.624063401773     Delta-E=       -0.000000665389 Rises=F Damp=F
 DIIS: error= 1.90D-05 at cycle   5 NSaved=   5.
 NSaved= 5 IEnMin= 5 EnMin= -233.624063401773     IErMin= 5 ErrMin= 1.90D-05
 ErrMax= 1.90D-05  0.00D+00 EMaxC= 1.00D-01 BMatC= 1.11D-07 BMatP= 7.21D-07
 IDIUse=1 WtCom= 1.00D+00 WtEn= 0.00D+00
 Coeff-Com:  0.253D-02-0.360D-01 0.672D-01 0.355D+00 0.611D+00
 Coeff:      0.253D-02-0.360D-01 0.672D-01 0.355D+00 0.611D+00
 Gap=     0.343 Goal=   None    Shift=    0.000
 RMSDP=1.19D-06 MaxDP=5.17D-05 DE=-6.65D-07 OVMax= 9.02D-05

 Cycle   6  Pass 1  IDiag  1:
 RMSU=  8.71D-07    CP:  9.99D-01  1.21D+00  1.08D+00  1.02D+00  9.37D-01
 E= -233.624063487428     Delta-E=       -0.000000085655 Rises=F Damp=F
 DIIS: error= 3.17D-06 at cycle   6 NSaved=   6.
 NSaved= 6 IEnMin= 6 EnMin= -233.624063487428     IErMin= 6 ErrMin= 3.17D-06
 ErrMax= 3.17D-06  0.00D+00 EMaxC= 1.00D-01 BMatC= 5.92D-09 BMatP= 1.11D-07
 IDIUse=1 WtCom= 1.00D+00 WtEn= 0.00D+00
 Coeff-Com:  0.918D-03-0.100D-01 0.505D-02 0.721D-01 0.226D+00 0.706D+00
 Coeff:      0.918D-03-0.100D-01 0.505D-02 0.721D-01 0.226D+00 0.706D+00
 Gap=     0.343 Goal=   None    Shift=    0.000
 RMSDP=4.01D-07 MaxDP=1.16D-05 DE=-8.57D-08 OVMax= 2.67D-05

 Cycle   7  Pass 1  IDiag  1:
 RMSU=  2.77D-07    CP:  9.99D-01  1.21D+00  1.08D+00  1.04D+00  9.87D-01
                    CP:  1.01D+00
 E= -233.624063492326     Delta-E=       -0.000000004898 Rises=F Damp=F
[...]
           D9         176.09152 175.70338
           D10        -62.67618 -62.87129
           D11        176.85043 176.38535
           D12         56.78073  56.50407
           D13        176.11832 176.19988
           D14         55.64493  55.45652
           D15        -64.42477 -64.42476
           D16        177.15301 177.07461
           D17         56.50066  56.40717
           D18        -62.97389 -63.03623
           D19        -60.54194 -60.42535
           D20        178.80571 178.90721
           D21         59.33115  59.46381
           D22         60.27609  60.29118
           D23        -60.37626 -60.37626
           D24       -179.85082-179.81966
 Largest change from initial coordinates is atom    8       0.000 Angstoms.
 GradGradGradGradGradGradGradGradGradGradGradGradGradGradGradGradGradGrad

 Leave Link  103 at Tue Apr 23 22:38:22 2019, MaxMem=   671088640 cpu:               0.7 elap:               0.1
 (Enter /shared/centos7/gaussian/g16/l202.exe)
                          Input orientation:                          
 ---------------------------------------------------------------------
 Center     Atomic      Atomic             Coordinates (Angstroms)
 Number     Number       Type             X           Y           Z
 ---------------------------------------------------------------------
      1          8           0        0.596041   -0.704023    0.428103
      2          6           0       -0.468290    0.219226    0.289510
      3          6           0       -0.365958    1.019227   -1.002683
      4          6           0       -1.747523   -0.592033    0.345793
      5          6           0        1.859145   -0.117815    0.601784
      6          1           0       -0.438332    0.912070    1.142609
      7          1           0       -0.326706    0.338037   -1.853892
      8          1           0        0.519588    1.652814   -1.022564
      9          1           0       -1.237690    1.663659   -1.114097
     10          1           0       -2.618619    0.060282    0.296744
     11          1           0       -1.789733   -1.169297    1.267554
     12          1           0       -1.782069   -1.283896   -0.496278
     13          1           0        2.228517    0.347390   -0.316370
     14          1           0        1.838107    0.639298    1.394149
     15          1           0        2.546497   -0.909771    0.890118
 ---------------------------------------------------------------------
                    Distance matrix (angstroms):
                    1          2          3          4          5
     1  O    0.000000
     2  C    1.415767   0.000000
     3  C    2.437659   1.523233   0.000000
     4  C    2.347681   1.515831   2.514611   0.000000
     5  C    1.403295   2.372354   2.969556   3.646706   0.000000
     6  H    2.047487   1.099413   2.149186   2.147375   2.575181
     7  H    2.672986   2.151357   1.090925   2.778914   3.319050
     8  H    2.768567   2.180050   1.089045   3.471531   2.751008
     9  H    3.368511   2.156032   1.089780   2.734840   3.963367
    10  H    3.306880   2.156207   2.771744   1.089371   4.491674
    11  H    2.571590   2.151924   3.459877   1.088420   3.855279
    12  H    2.616513   2.145426   2.750671   1.090390   3.977929
    13  H    2.079588   2.766999   2.766531   4.138824   1.093553
    14  H    2.068934   2.591555   3.278271   3.933443   1.096132
    15  H    2.014962   3.274799   3.973176   4.340029   1.087559
                    6          7          8          9         10
     6  H    0.000000
     7  H    3.053030   0.000000
     8  H    2.480783   1.770863   0.000000
     9  H    2.509298   1.770441   1.759693   0.000000
    10  H    2.488911   3.155193   3.758334   2.543276   0.000000
    11  H    2.484751   3.762436   4.306032   3.742011   1.772396
    12  H    3.051859   2.567463   3.768138   3.060413   1.770738
    13  H    3.091855   2.982151   2.263467   3.792561   4.894187
    14  H    2.306481   3.914965   2.933635   4.098919   4.626226
    15  H    3.506004   4.164362   3.785968   4.995947   5.288811
                   11         12         13         14         15
    11  H    0.000000
    12  H    1.767567   0.000000
    13  H    4.577716   4.333389   0.000000
    14  H    4.055647   4.514207   1.778624   0.000000
    15  H    4.360356   4.560543   1.771207   1.776367   0.000000
 Stoichiometry    C4H10O
 Framework group  C1[X(C4H10O)]
 Deg. of freedom    39
 Full point group                 C1      NOp   1
 RotChk:  IX=0 Diff= 1.69D-15
 Largest Abelian subgroup         C1      NOp   1
 Largest concise Abelian subgroup C1      NOp   1
                         Standard orientation:                         
 ---------------------------------------------------------------------
 Center     Atomic      Atomic             Coordinates (Angstroms)
 Number     Number       Type             X           Y           Z
 ---------------------------------------------------------------------
      1          8           0        0.679219   -0.632819   -0.308832
      2          6           0       -0.421865   -0.009679    0.326546
      3          6           0       -0.582230    1.442894   -0.103050
      4          6           0       -1.642593   -0.835940   -0.026809
      5          6           0        1.933208   -0.126309    0.065597
      6          1           0       -0.259653   -0.045569    1.413334
      7          1           0       -0.676456    1.496273   -1.188587
      8          1           0        0.263958    2.056030    0.203624
      9          1           0       -1.480067    1.868716    0.344370
     10          1           0       -2.528716   -0.444803    0.471715
     11          1           0       -1.497730   -1.872548    0.271714
     12          1           0       -1.807339   -0.807173   -1.104298
     13          1           0        2.114156    0.872012   -0.342411
     14          1           0        2.032175   -0.082174    1.156360
     15          1           0        2.686795   -0.804017   -0.328865
 ---------------------------------------------------------------------
 Rotational constants (GHZ):           7.7293278           3.8505175           2.8502493
 Leave Link  202 at Tue Apr 23 22:38:22 2019, MaxMem=   671088640 cpu:               0.3 elap:               0.0
 (Enter /shared/centos7/gaussian/g16/l601.exe)
 Copying SCF densities to generalized density rwf, IOpCl= 0 IROHF=0.

 **********************************************************************

            Population analysis using the SCF density.

 **********************************************************************

 Orbital symmetries:
       Occupied  (A) (A) (A) (A) (A) (A) (A) (A) (A) (A) (A) (A)
                 (A) (A) (A) (A) (A) (A) (A) (A) (A)
       Virtual   (A) (A) (A) (A) (A) (A) (A) (A) (A) (A) (A) (A)
                 (A) (A) (A) (A) (A) (A) (A) (A) (A) (A) (A) (A)
                 (A) (A) (A) (A) (A) (A) (A) (A) (A) (A) (A) (A)
                 (A) (A) (A) (A) (A) (A) (A) (A) (A) (A) (A) (A)
                 (A) (A) (A) (A) (A) (A) (A) (A) (A) (A) (A) (A)
                 (A) (A) (A) (A) (A) (A) (A) (A) (A) (A) (A) (A)
                 (A) (A) (A) (A) (A) (A) (A) (A) (A) (A) (A) (A)
                 (A) (A) (A) (A) (A) (A) (A) (A) (A) (A) (A) (A)
                 (A) (A) (A) (A) (A) (A) (A) (A) (A) (A) (A) (A)
                 (A) (A) (A) (A) (A) (A) (A) (A) (A) (A) (A) (A)
                 (A) (A) (A) (A) (A) (A) (A) (A) (A) (A) (A) (A)
                 (A) (A) (A) (A) (A) (A) (A) (A) (A) (A) (A) (A)
                 (A) (A) (A) (A) (A) (A) (A) (A) (A) (A) (A) (A)
                 (A) (A) (A) (A) (A) (A) (A) (A) (A) (A) (A) (A)
                 (A) (A) (A) (A) (A) (A) (A) (A) (A) (A) (A) (A)
                 (A) (A) (A) (A) (A) (A) (A) (A) (A) (A) (A) (A)
                 (A) (A) (A) (A) (A) (A) (A) (A) (A) (A) (A) (A)
                 (A) (A) (A) (A) (A) (A) (A) (A) (A) (A) (A) (A)
                 (A) (A) (A) (A) (A) (A) (A) (A) (A) (A) (A) (A)
                 (A) (A) (A) (A) (A) (A) (A) (A) (A) (A) (A)
 The electronic state is 1-A.
 Alpha  occ. eigenvalues --  -19.61883 -10.58475 -10.57200 -10.52259 -10.51896
 Alpha  occ. eigenvalues --   -1.15675  -0.88286  -0.78896  -0.76366  -0.66215
 Alpha  occ. eigenvalues --   -0.57209  -0.53942  -0.53432  -0.49720  -0.46117
 Alpha  occ. eigenvalues --   -0.45467  -0.44151  -0.41440  -0.40885  -0.37591
 Alpha  occ. eigenvalues --   -0.32738
 Alpha virt. eigenvalues --    0.01674   0.03002   0.03482   0.03958   0.05590
 Alpha virt. eigenvalues --    0.06606   0.06978   0.07604   0.07801   0.09522
 Alpha virt. eigenvalues --    0.10167   0.11183   0.12179   0.13180   0.13689
 Alpha virt. eigenvalues --    0.15495   0.18060   0.19590   0.21181   0.21799
 Alpha virt. eigenvalues --    0.22749   0.24521   0.25188   0.25610   0.26141
 Alpha virt. eigenvalues --    0.27208   0.27494   0.28554   0.29741   0.30458
 Alpha virt. eigenvalues --    0.31498   0.34302   0.36530   0.38603   0.40325
 Alpha virt. eigenvalues --    0.42697   0.44724   0.45123   0.49521   0.50393
 Alpha virt. eigenvalues --    0.51029   0.53032   0.53967   0.55597   0.56470
 Alpha virt. eigenvalues --    0.56653   0.57808   0.58919   0.59430   0.60701
 Alpha virt. eigenvalues --    0.62107   0.62340   0.63761   0.65734   0.67910
 Alpha virt. eigenvalues --    0.70259   0.70730   0.71810   0.74083   0.77105
 Alpha virt. eigenvalues --    0.80322   0.83182   0.86116   0.88974   0.89524
 Alpha virt. eigenvalues --    0.91546   0.95859   0.97286   0.98253   1.00251
 Alpha virt. eigenvalues --    1.03923   1.05488   1.07277   1.08075   1.10301
 Alpha virt. eigenvalues --    1.12261   1.13266   1.13958   1.17018   1.17335
 Alpha virt. eigenvalues --    1.19518   1.20950   1.22054   1.22936   1.24826
 Alpha virt. eigenvalues --    1.26198   1.29901   1.30119   1.31130   1.32787
 Alpha virt. eigenvalues --    1.34588   1.35538   1.37578   1.38873   1.39767
 Alpha virt. eigenvalues --    1.40992   1.42284   1.44589   1.46574   1.48091
 Alpha virt. eigenvalues --    1.49167   1.50857   1.52244   1.54200   1.56811
 Alpha virt. eigenvalues --    1.58777   1.61193   1.61955   1.62064   1.65838
 Alpha virt. eigenvalues --    1.68459   1.69545   1.75903   1.86400   2.05521
 Alpha virt. eigenvalues --    2.11576   2.11951   2.25242   2.37487   2.39953
 Alpha virt. eigenvalues --    2.41319   2.47892   2.54513   2.55483   2.59985
 Alpha virt. eigenvalues --    2.62468   2.66045   2.70917   2.73032   2.77719
 Alpha virt. eigenvalues --    2.82583   2.88754   2.90942   2.96092   2.97495
 Alpha virt. eigenvalues --    2.99080   3.00502   3.03311   3.04182   3.08561
 Alpha virt. eigenvalues --    3.10466   3.12983   3.13820   3.14916   3.17389
 Alpha virt. eigenvalues --    3.19665   3.21577   3.23711   3.26870   3.29913
 Alpha virt. eigenvalues --    3.31937   3.34532   3.36984   3.38021   3.38872
 Alpha virt. eigenvalues --    3.42363   3.43862   3.46723   3.49792   3.52627
 Alpha virt. eigenvalues --    3.54031   3.56854   3.58313   3.61676   3.61869
 Alpha virt. eigenvalues --    3.64909   3.70964   3.72524   3.75797   3.78025
 Alpha virt. eigenvalues --    3.81274   3.81893   3.85061   3.87707   3.90015
 Alpha virt. eigenvalues --    3.93306   3.95442   3.99092   4.00967   4.02053
 Alpha virt. eigenvalues --    4.03632   4.07810   4.08120   4.12914   4.17610
 Alpha virt. eigenvalues --    4.18802   4.19756   4.20854   4.21749   4.23376
 Alpha virt. eigenvalues --    4.25055   4.26527   4.29136   4.30331   4.32840
 Alpha virt. eigenvalues --    4.35569   4.37054   4.39593   4.44858   4.49942
 Alpha virt. eigenvalues --    4.50734   4.51519   4.55449   4.57056   4.60060
 Alpha virt. eigenvalues --    4.61396   4.65457   4.72879   4.82900   4.94127
 Alpha virt. eigenvalues --    5.19290   5.27585   5.29845   5.33803   5.41939
 Alpha virt. eigenvalues --    5.48185   5.53712   5.56228   5.59053   5.61026
 Alpha virt. eigenvalues --    5.61590   5.64338   5.66915   5.69676   5.84078
 Alpha virt. eigenvalues --    5.91630   6.23275   6.50647   6.73832   7.21131
 Alpha virt. eigenvalues --    7.23071   7.36746   7.73319   7.78547  24.33085
 Alpha virt. eigenvalues --   24.41833  24.45383  24.51792  50.20677
          Condensed to atoms (all electrons):
               1          2          3          4          5          6
     1  O    8.244219   0.230917  -0.128500  -0.128114   0.110718  -0.043088
     2  C    0.230917   5.313836   0.172579   0.320970  -0.107349   0.467082
     3  C   -0.128500   0.172579   5.283859  -0.123934   0.015709  -0.066266
     4  C   -0.128114   0.320970  -0.123934   5.180304  -0.020007  -0.023956
     5  C    0.110718  -0.107349   0.015709  -0.020007   4.986474  -0.010210
     6  H   -0.043088   0.467082  -0.066266  -0.023956  -0.010210   0.520570
     7  H   -0.003710  -0.033547   0.430095  -0.014524  -0.004049   0.005834
     8  H   -0.008185  -0.016706   0.391987   0.008600   0.005216  -0.007414
     9  H    0.009666  -0.043916   0.420019  -0.001340  -0.000984  -0.002258
    10  H    0.013622  -0.047497  -0.009860   0.430026   0.001573  -0.006480
    11  H   -0.005108  -0.028353   0.020010   0.397393  -0.001192  -0.006368
    12  H   -0.010587  -0.006453  -0.016183   0.398734  -0.000692   0.005989
    13  H   -0.051551  -0.003667   0.000485  -0.007802   0.447660  -0.001664
    14  H   -0.044503   0.000672  -0.001657   0.002199   0.421452   0.006207
    15  H   -0.059217   0.010960   0.000169   0.002646   0.429888   0.000201
               7          8          9         10         11         12
     1  O   -0.003710  -0.008185   0.009666   0.013622  -0.005108  -0.010587
     2  C   -0.033547  -0.016706  -0.043916  -0.047497  -0.028353  -0.006453
     3  C    0.430095   0.391987   0.420019  -0.009860   0.020010  -0.016183
     4  C   -0.014524   0.008600  -0.001340   0.430026   0.397393   0.398734
     5  C   -0.004049   0.005216  -0.000984   0.001573  -0.001192  -0.000692
     6  H    0.005834  -0.007414  -0.002258  -0.006480  -0.006368   0.005989
     7  H    0.504084  -0.028742  -0.028479   0.000258  -0.000186   0.002088
     8  H   -0.028742   0.545830  -0.024584   0.000203  -0.000285  -0.000005
     9  H   -0.028479  -0.024584   0.528923   0.000462   0.000124  -0.000536
    10  H    0.000258   0.000203   0.000462   0.532516  -0.022559  -0.032235
    11  H   -0.000186  -0.000285   0.000124  -0.022559   0.521618  -0.025440
    12  H    0.002088  -0.000005  -0.000536  -0.032235  -0.025440   0.526915
    13  H   -0.000083  -0.003339  -0.000154   0.000019   0.000015  -0.000027
    14  H    0.000270  -0.001215   0.000039  -0.000006   0.000019  -0.000001
    15  H   -0.000147   0.000396   0.000045   0.000015  -0.000038   0.000025
              13         14         15
     1  O   -0.051551  -0.044503  -0.059217
     2  C   -0.003667   0.000672   0.010960
     3  C    0.000485  -0.001657   0.000169
     4  C   -0.007802   0.002199   0.002646
     5  C    0.447660   0.421452   0.429888
     6  H   -0.001664   0.006207   0.000201
     7  H   -0.000083   0.000270  -0.000147
     8  H   -0.003339  -0.001215   0.000396
     9  H   -0.000154   0.000039   0.000045
    10  H    0.000019  -0.000006   0.000015
    11  H    0.000015   0.000019  -0.000038
    12  H   -0.000027  -0.000001   0.000025
    13  H    0.575425  -0.052818  -0.028048
    14  H   -0.052818   0.575325  -0.021822
    15  H   -0.028048  -0.021822   0.528867
 Mulliken charges:
               1
     1  O   -0.126579
     2  C   -0.229527
     3  C   -0.388512
     4  C   -0.421196
     5  C   -0.274206
     6  H    0.161820
     7  H    0.170836
     8  H    0.138245
     9  H    0.142973
    10  H    0.139944
    11  H    0.150348
    12  H    0.158407
    13  H    0.125549
    14  H    0.115838
    15  H    0.136060
 Sum of Mulliken charges =  -0.00000
 Mulliken charges with hydrogens summed into heavy atoms:
               1
     1  O   -0.126579
     2  C   -0.067707
     3  C    0.063542
     4  C    0.027503
     5  C    0.103241
 Electronic spatial extent (au):  <R**2>=            501.4289
 Charge=              0.0000 electrons
 Dipole moment (field-independent basis, Debye):
    X=              0.0421    Y=              0.9839    Z=              0.8432  Tot=              1.2964
 Quadrupole moment (field-independent basis, Debye-Ang):
   XX=            -30.8131   YY=            -34.5543   ZZ=            -33.7825
   XY=              0.3859   XZ=              0.2439   YZ=             -0.6260
 Traceless Quadrupole moment (field-independent basis, Debye-Ang):
   XX=              2.2368   YY=             -1.5043   ZZ=             -0.7325
   XY=              0.3859   XZ=              0.2439   YZ=             -0.6260
 Octapole moment (field-independent basis, Debye-Ang**2):
  XXX=              8.8257  YYY=             -2.7358  ZZZ=             -1.0566  XYY=              1.0515
  XXY=             -1.3284  XXZ=             -0.1276  XZZ=              0.4216  YZZ=             -0.5079
  YYZ=              0.2679  XYZ=             -0.4102
 Hexadecapole moment (field-independent basis, Debye-Ang**3):
 XXXX=           -394.8728 YYYY=           -212.1440 ZZZZ=            -71.9182 XXXY=            -10.1531
 XXXZ=             -6.9440 YYYX=              0.7948 YYYZ=              0.2011 ZZZX=              2.1021
 ZZZY=             -0.6002 XXYY=           -101.0876 XXZZ=            -79.5347 YYZZ=            -48.3550
 XXYZ=              2.5310 YYXZ=             -1.9110 ZZXY=             -0.8621
 N-N= 1.974087025303D+02 E-N=-9.390846185048D+02  KE= 2.326910784725D+02
 No NMR shielding tensors so no spin-rotation constants.
 Leave Link  601 at Tue Apr 23 22:38:22 2019, MaxMem=   671088640 cpu:               5.2 elap:               0.3
 (Enter /shared/centos7/gaussian/g16/l9999.exe)
 1\1\GINC-C0245\Scan\RM062X\6-311+G(2df,2p)\C4H10O1\UNDERKOFFLER.C\23-A
 pr-2019\0\\#p m062x/6-311+g(2df,2p) Opt=(CalcFC,ModRedun)\\Gaussian In
 put Prepared from Scan Object\\0,1\O,0.5960405337,-0.7040228179,0.4281
 033064\C,-0.4682902505,0.2192256589,0.2895100954\C,-0.3659583474,1.019
 2271522,-1.0026834364\C,-1.7475226893,-0.5920326687,0.3457926527\C,1.8
 591445737,-0.1178150201,0.6017840197\H,-0.438332314,0.9120701064,1.142
 6086312\H,-0.3267063656,0.3380372409,-1.8538920589\H,0.519587799,1.652
 8138802,-1.022564396\H,-1.237689857,1.6636586017,-1.1140966875\H,-2.61
 86190123,0.0602823637,0.2967435966\H,-1.7897332431,-1.1692971135,1.267
 5535276\H,-1.7820691704,-1.2838959345,-0.4962777929\H,2.2285166396,0.3
 473897092,-0.3163695435\H,1.8381074038,0.6392983923,1.3941491925\H,2.5
 464972999,-0.9097705506,0.890117893\\Version=EM64L-G16RevA.03\State=1-
 A\HF=-233.6252115,-233.625006,-233.6244504,-233.6236816,-233.6228854,-
 233.6222674,-233.622003,-233.6221898,-233.622787,-233.6236245,-233.624
 4517,-233.6250295,-233.6252099,-233.6249701,-233.6243917,-233.6236252,
 -233.6228525,-233.6222614,-233.6220041,-233.6221664,-233.6227194,-233.
 6235222,-233.6243464,-233.6249594,-233.6252092,-233.6250476,-233.62452
 63,-233.6237689,-233.6229594,-233.622309,-233.6220072,-233.6221668,-23
 3.6227498,-233.6235822,-233.624411,-233.625002,-233.6252115\RMSD=5.665
 e-09,6.837e-09,2.491e-09,9.195e-09,8.316e-09,9.347e-09,2.693e-09,2.341
 e-09,2.490e-09,8.421e-09,4.627e-09,5.090e-09,4.353e-09,8.250e-09,3.533
 e-09,8.146e-09,3.994e-09,6.482e-09,6.271e-09,2.559e-09,7.054e-09,3.359
 e-09,4.720e-09,8.380e-09,4.831e-09,7.381e-09,8.560e-09,3.794e-09,2.604
 e-09,2.757e-09,2.781e-09,3.281e-09,8.456e-09,2.615e-09,8.277e-09,5.899
 e-09,8.908e-09\PG=C01 [X(C4H10O1)]\\@


 TWO ROADS DIVERGED IN A WOOD, AND I--
 I TOOK THE ONE LESS TRAVELED BY,
 AND THAT HAS MADE ALL THE DIFFERENCE.

                       -- ROBERT FROST
 Job cpu time:       0 days 16 hours 46 minutes 16.4 seconds.
 Elapsed time:       0 days  0 hours 51 minutes  1.5 seconds.
 File lengths (MBytes):  RWF=   1328 Int=      0 D2E=      0 Chk=     32 Scr=     32
 Normal termination of Gaussian 16 at Tue Apr 23 22:38:22 2019.
