 Entering Gaussian System, Link 0=g16
 Input=LRHPLDYGYMQRHN-UHFFFAOYSA-N_36by10.0_tor03_a1.com
 Output=LRHPLDYGYMQRHN-UHFFFAOYSA-N_36by10.0_tor03_a1.log
 Initial command:
 /shared/centos7/gaussian/g16/l1.exe "/scratch/underkoffler.c/gaussian_scratch/Gau-8515.inp" -scrdir="/scratch/underkoffler.c/gaussian_scratch/"
 Entering Link 1 = /shared/centos7/gaussian/g16/l1.exe PID=      8516.
  
 Copyright (c) 1988,1990,1992,1993,1995,1998,2003,2009,2016,
            Gaussian, Inc.  All Rights Reserved.
  
 This is part of the Gaussian(R) 16 program.  It is based on
 the Gaussian(R) 09 system (copyright 2009, Gaussian, Inc.),
 the Gaussian(R) 03 system (copyright 2003, Gaussian, Inc.),
 the Gaussian(R) 98 system (copyright 1998, Gaussian, Inc.),
 the Gaussian(R) 94 system (copyright 1995, Gaussian, Inc.),
 the Gaussian 92(TM) system (copyright 1992, Gaussian, Inc.),
 the Gaussian 90(TM) system (copyright 1990, Gaussian, Inc.),
 the Gaussian 88(TM) system (copyright 1988, Gaussian, Inc.),
 the Gaussian 86(TM) system (copyright 1986, Carnegie Mellon
 University), and the Gaussian 82(TM) system (copyright 1983,
 Carnegie Mellon University). Gaussian is a federally registered
 trademark of Gaussian, Inc.
  
 This software contains proprietary and confidential information,
 including trade secrets, belonging to Gaussian, Inc.
  
 This software is provided under written license and may be
 used, copied, transmitted, or stored only in accord with that
 written license.
  
 The following legend is applicable only to US Government
 contracts under FAR:
  
                    RESTRICTED RIGHTS LEGEND
  
 Use, reproduction and disclosure by the US Government is
 subject to restrictions as set forth in subparagraphs (a)
 and (c) of the Commercial Computer Software - Restricted
 Rights clause in FAR 52.227-19.
  
 Gaussian, Inc.
 340 Quinnipiac St., Bldg. 40, Wallingford CT 06492
  
  
 ---------------------------------------------------------------
 Warning -- This program may not be used in any manner that
 competes with the business of Gaussian, Inc. or will provide
 assistance to any competitor of Gaussian, Inc.  The licensee
 of this program is prohibited from giving any competitor of
 Gaussian, Inc. access to this program.  By using this program,
 the user acknowledges that Gaussian, Inc. is engaged in the
 business of creating and licensing software in the field of
 computational chemistry and represents and warrants to the
 licensee that it is not a competitor of Gaussian, Inc. and that
 it will not use this program in any manner prohibited above.
 ---------------------------------------------------------------
  

 Cite this work as:
 Gaussian 16, Revision A.03,
 M. J. Frisch, G. W. Trucks, H. B. Schlegel, G. E. Scuseria, 
 M. A. Robb, J. R. Cheeseman, G. Scalmani, V. Barone, 
 G. A. Petersson, H. Nakatsuji, X. Li, M. Caricato, A. V. Marenich, 
 J. Bloino, B. G. Janesko, R. Gomperts, B. Mennucci, H. P. Hratchian, 
 J. V. Ortiz, A. F. Izmaylov, J. L. Sonnenberg, D. Williams-Young, 
 F. Ding, F. Lipparini, F. Egidi, J. Goings, B. Peng, A. Petrone, 
 T. Henderson, D. Ranasinghe, V. G. Zakrzewski, J. Gao, N. Rega, 
 G. Zheng, W. Liang, M. Hada, M. Ehara, K. Toyota, R. Fukuda, 
 J. Hasegawa, M. Ishida, T. Nakajima, Y. Honda, O. Kitao, H. Nakai, 
 T. Vreven, K. Throssell, J. A. Montgomery, Jr., J. E. Peralta, 
 F. Ogliaro, M. J. Bearpark, J. J. Heyd, E. N. Brothers, K. N. Kudin, 
 V. N. Staroverov, T. A. Keith, R. Kobayashi, J. Normand, 
 K. Raghavachari, A. P. Rendell, J. C. Burant, S. S. Iyengar, 
 J. Tomasi, M. Cossi, J. M. Millam, M. Klene, C. Adamo, R. Cammi, 
 J. W. Ochterski, R. L. Martin, K. Morokuma, O. Farkas, 
 J. B. Foresman, and D. J. Fox, Gaussian, Inc., Wallingford CT, 2016.
 
 ******************************************
 Gaussian 16:  EM64L-G16RevA.03 25-Dec-2016
                11-Mar-2019 
 ******************************************
 %nprocshared=20
 Will use up to   20 processors via shared memory.
 %mem=5GB
 ----------------------------------------------
 #p m062x/6-311+g(2df,2p) Opt=(CalcFC,ModRedun)
 ----------------------------------------------
 1/10=4,18=120,19=15,26=3,38=1/1,3;
 2/9=110,12=2,17=6,18=5,40=1/2;
 3/5=4,6=6,7=214,11=2,25=1,30=1,71=2,74=-55,140=1/1,2,3;
 4//1;
 5/5=2,38=5/2;
 8/6=4,10=90,11=11/1;
 11/6=1,8=1,9=11,15=111,16=1/1,2,10;
 10/6=1,13=1/2;
 6/7=2,8=2,9=2,10=2,28=1/1;
 7/10=1,18=20,25=1/1,2,3,16;
 1/10=4,18=20,19=15,26=3/3(2);
 2/9=110/2;
 99//99;
 2/9=110/2;
 3/5=4,6=6,7=214,11=2,25=1,30=1,71=1,74=-55/1,2,3;
 4/5=5,16=3,69=1/1;
 5/5=2,38=5/2;
 7//1,2,3,16;
 1/18=20,19=15,26=3/3(-5);
 2/9=110/2;
 6/7=2,8=2,9=2,10=2,19=2,28=1/1;
 99/9=1/99;
 Leave Link    1 at Mon Mar 11 00:05:02 2019, MaxMem=   671088640 cpu:              30.1 elap:               1.6
 (Enter /shared/centos7/gaussian/g16/l101.exe)
 ----------------------------------------
 Gaussian Input Prepared from Scan Object
 ----------------------------------------
 Symbolic Z-matrix:
 Charge =  0 Multiplicity = 1
 O                     2.38161  -1.269     0.18191 
 C                     0.21749  -0.16866   0.49976 
 C                    -0.05573  -0.81434   1.85872 
 C                     1.69798  -0.02933   0.17313 
 C                     0.59564  -0.07869   3.02686 
 H                     0.27912  -1.85483   1.8417 
 H                    -1.13465  -0.85647   2.01437 
 H                    -0.23168   0.82844   0.47387 
 H                    -0.25966  -0.75917  -0.28445 
 H                     2.17678   0.67737   0.85893 
 H                     1.81909   0.36783  -0.83371 
 H                     0.30594   0.97341   3.03316 
 H                     0.2996   -0.51368   3.98037 
 H                     1.68507  -0.11535   2.97589 
 H                     2.3773   -1.62156   1.07407 
 
 The following ModRedundant input section has been read:
 B       3       5 B                                                           
 B       4      11 B                                                           
 B       5      14 B                                                           
 B       1      15 B                                                           
 B       3       6 B                                                           
 B       2       3 B                                                           
 B       3       7 B                                                           
 B       2       4 B                                                           
 B       2       8 B                                                           
 B       1       4 B                                                           
 B       2       9 B                                                           
 B       5      12 B                                                           
 B       4      10 B                                                           
 B       5      13 B                                                           
 D      15       1       4      10 S  36 10.000                                
 
 ITRead=  0  0  0  0  0  0  0  0  0  0  0  0  0  0  0
 MicOpt= -1 -1 -1 -1 -1 -1 -1 -1 -1 -1 -1 -1 -1 -1 -1
 NAtoms=     15 NQM=       15 NQMF=       0 NMMI=      0 NMMIF=      0
                NMic=       0 NMicF=      0.
                    Isotopes and Nuclear Properties:
 (Nuclear quadrupole moments (NQMom) in fm**2, nuclear magnetic moments (NMagM)
  in nuclear magnetons)

  Atom         1           2           3           4           5           6           7           8           9          10
 IAtWgt=          16          12          12          12          12           1           1           1           1           1
 AtmWgt=  15.9949146  12.0000000  12.0000000  12.0000000  12.0000000   1.0078250   1.0078250   1.0078250   1.0078250   1.0078250
 NucSpn=           0           0           0           0           0           1           1           1           1           1
 AtZEff=  -0.0000000  -0.0000000  -0.0000000  -0.0000000  -0.0000000  -0.0000000  -0.0000000  -0.0000000  -0.0000000  -0.0000000
 NQMom=    0.0000000   0.0000000   0.0000000   0.0000000   0.0000000   0.0000000   0.0000000   0.0000000   0.0000000   0.0000000
 NMagM=    0.0000000   0.0000000   0.0000000   0.0000000   0.0000000   2.7928460   2.7928460   2.7928460   2.7928460   2.7928460
 AtZNuc=   8.0000000   6.0000000   6.0000000   6.0000000   6.0000000   1.0000000   1.0000000   1.0000000   1.0000000   1.0000000

  Atom        11          12          13          14          15
 IAtWgt=           1           1           1           1           1
 AtmWgt=   1.0078250   1.0078250   1.0078250   1.0078250   1.0078250
 NucSpn=           1           1           1           1           1
 AtZEff=  -0.0000000  -0.0000000  -0.0000000  -0.0000000  -0.0000000
 NQMom=    0.0000000   0.0000000   0.0000000   0.0000000   0.0000000
 NMagM=    2.7928460   2.7928460   2.7928460   2.7928460   2.7928460
 AtZNuc=   1.0000000   1.0000000   1.0000000   1.0000000   1.0000000
 Leave Link  101 at Mon Mar 11 00:05:03 2019, MaxMem=   671088640 cpu:               6.2 elap:               0.3
 (Enter /shared/centos7/gaussian/g16/l103.exe)

 GradGradGradGradGradGradGradGradGradGradGradGradGradGradGradGradGradGrad
 Berny optimization.
 Initialization pass.
                           ----------------------------
                           !    Initial Parameters    !
                           ! (Angstroms and Degrees)  !
 --------------------------                            --------------------------
 ! Name  Definition              Value          Derivative Info.                !
 --------------------------------------------------------------------------------
 ! R1    R(1,4)                  1.4157         calculate D2E/DX2 analytically  !
 ! R2    R(1,15)                 0.9593         calculate D2E/DX2 analytically  !
 ! R3    R(2,3)                  1.5292         calculate D2E/DX2 analytically  !
 ! R4    R(2,4)                  1.5225         calculate D2E/DX2 analytically  !
 ! R5    R(2,8)                  1.0939         calculate D2E/DX2 analytically  !
 ! R6    R(2,9)                  1.0915         calculate D2E/DX2 analytically  !
 ! R7    R(3,5)                  1.5264         calculate D2E/DX2 analytically  !
 ! R8    R(3,6)                  1.0932         calculate D2E/DX2 analytically  !
 ! R9    R(3,7)                  1.0909         calculate D2E/DX2 analytically  !
 ! R10   R(4,10)                 1.095          calculate D2E/DX2 analytically  !
 ! R11   R(4,11)                 1.0891         calculate D2E/DX2 analytically  !
 ! R12   R(5,12)                 1.0913         calculate D2E/DX2 analytically  !
 ! R13   R(5,13)                 1.0891         calculate D2E/DX2 analytically  !
 ! R14   R(5,14)                 1.0912         calculate D2E/DX2 analytically  !
 ! A1    A(4,1,15)             108.991          calculate D2E/DX2 analytically  !
 ! A2    A(3,2,4)              113.769          calculate D2E/DX2 analytically  !
 ! A3    A(3,2,8)              109.423          calculate D2E/DX2 analytically  !
 ! A4    A(3,2,9)              109.3879         calculate D2E/DX2 analytically  !
 ! A5    A(4,2,8)              108.1066         calculate D2E/DX2 analytically  !
 ! A6    A(4,2,9)              108.6915         calculate D2E/DX2 analytically  !
 ! A7    A(8,2,9)              107.2553         calculate D2E/DX2 analytically  !
 ! A8    A(2,3,5)              113.6003         calculate D2E/DX2 analytically  !
 ! A9    A(2,3,6)              109.4704         calculate D2E/DX2 analytically  !
 ! A10   A(2,3,7)              108.6521         calculate D2E/DX2 analytically  !
 ! A11   A(5,3,6)              109.8719         calculate D2E/DX2 analytically  !
 ! A12   A(5,3,7)              109.3579         calculate D2E/DX2 analytically  !
 ! A13   A(6,3,7)              105.5694         calculate D2E/DX2 analytically  !
 ! A14   A(1,4,2)              112.8365         calculate D2E/DX2 analytically  !
 ! A15   A(1,4,10)             110.4939         calculate D2E/DX2 analytically  !
 ! A16   A(1,4,11)             105.7453         calculate D2E/DX2 analytically  !
 ! A17   A(2,4,10)             110.4812         calculate D2E/DX2 analytically  !
 ! A18   A(2,4,11)             109.8675         calculate D2E/DX2 analytically  !
 ! A19   A(10,4,11)            107.1592         calculate D2E/DX2 analytically  !
 ! A20   A(3,5,12)             110.8411         calculate D2E/DX2 analytically  !
 ! A21   A(3,5,13)             111.1942         calculate D2E/DX2 analytically  !
 ! A22   A(3,5,14)             111.9681         calculate D2E/DX2 analytically  !
 ! A23   A(12,5,13)            107.9303         calculate D2E/DX2 analytically  !
 ! A24   A(12,5,14)            107.3188         calculate D2E/DX2 analytically  !
 ! A25   A(13,5,14)            107.3887         calculate D2E/DX2 analytically  !
 ! D1    D(15,1,4,2)           -65.3238         calculate D2E/DX2 analytically  !
 ! D2    D(15,1,4,10)           58.9195         Scan                            !
 ! D3    D(15,1,4,11)          174.5535         calculate D2E/DX2 analytically  !
 ! D4    D(4,2,3,5)             57.041          calculate D2E/DX2 analytically  !
 ! D5    D(4,2,3,6)            -66.1822         calculate D2E/DX2 analytically  !
 ! D6    D(4,2,3,7)            178.9957         calculate D2E/DX2 analytically  !
 ! D7    D(8,2,3,5)            -63.9814         calculate D2E/DX2 analytically  !
 ! D8    D(8,2,3,6)            172.7954         calculate D2E/DX2 analytically  !
 ! D9    D(8,2,3,7)             57.9733         calculate D2E/DX2 analytically  !
 ! D10   D(9,2,3,5)            178.791          calculate D2E/DX2 analytically  !
 ! D11   D(9,2,3,6)             55.5678         calculate D2E/DX2 analytically  !
 ! D12   D(9,2,3,7)            -59.2544         calculate D2E/DX2 analytically  !
 ! D13   D(3,2,4,1)             58.1248         calculate D2E/DX2 analytically  !
 ! D14   D(3,2,4,10)           -66.1255         calculate D2E/DX2 analytically  !
 ! D15   D(3,2,4,11)           175.8508         calculate D2E/DX2 analytically  !
 ! D16   D(8,2,4,1)            179.8802         calculate D2E/DX2 analytically  !
 ! D17   D(8,2,4,10)            55.63           calculate D2E/DX2 analytically  !
 ! D18   D(8,2,4,11)           -62.3937         calculate D2E/DX2 analytically  !
 ! D19   D(9,2,4,1)            -64.0106         calculate D2E/DX2 analytically  !
 ! D20   D(9,2,4,10)           171.7391         calculate D2E/DX2 analytically  !
 ! D21   D(9,2,4,11)            53.7154         calculate D2E/DX2 analytically  !
 ! D22   D(2,3,5,12)            54.5299         calculate D2E/DX2 analytically  !
 ! D23   D(2,3,5,13)           174.5911         calculate D2E/DX2 analytically  !
 ! D24   D(2,3,5,14)           -65.2737         calculate D2E/DX2 analytically  !
 ! D25   D(6,3,5,12)           177.533          calculate D2E/DX2 analytically  !
 ! D26   D(6,3,5,13)           -62.4057         calculate D2E/DX2 analytically  !
 ! D27   D(6,3,5,14)            57.7294         calculate D2E/DX2 analytically  !
 ! D28   D(7,3,5,12)           -67.032          calculate D2E/DX2 analytically  !
 ! D29   D(7,3,5,13)            53.0292         calculate D2E/DX2 analytically  !
 ! D30   D(7,3,5,14)           173.1644         calculate D2E/DX2 analytically  !
 --------------------------------------------------------------------------------
 Trust Radius=3.00D-01 FncErr=1.00D-07 GrdErr=1.00D-06 EigMax=2.50D+02 EigMin=1.00D-04
 Number of optimizations in scan=  37
 Number of steps in this run=     79 maximum allowed number of steps=    100.
 GradGradGradGradGradGradGradGradGradGradGradGradGradGradGradGradGradGrad

 Leave Link  103 at Mon Mar 11 00:05:03 2019, MaxMem=   671088640 cpu:               0.2 elap:               0.0
 (Enter /shared/centos7/gaussian/g16/l202.exe)
                          Input orientation:                          
 ---------------------------------------------------------------------
 Center     Atomic      Atomic             Coordinates (Angstroms)
 Number     Number       Type             X           Y           Z
 ---------------------------------------------------------------------
      1          8           0        2.381608   -1.269000    0.181914
      2          6           0        0.217491   -0.168664    0.499759
      3          6           0       -0.055732   -0.814338    1.858724
      4          6           0        1.697976   -0.029329    0.173128
      5          6           0        0.595642   -0.078688    3.026858
      6          1           0        0.279123   -1.854833    1.841699
      7          1           0       -1.134651   -0.856474    2.014373
      8          1           0       -0.231676    0.828438    0.473873
      9          1           0       -0.259663   -0.759170   -0.284446
     10          1           0        2.176775    0.677374    0.858933
     11          1           0        1.819087    0.367827   -0.833706
     12          1           0        0.305943    0.973408    3.033164
     13          1           0        0.299604   -0.513679    3.980370
     14          1           0        1.685071   -0.115348    2.975892
     15          1           0        2.377297   -1.621557    1.074070
 ---------------------------------------------------------------------
                    Distance matrix (angstroms):
                    1          2          3          4          5
     1  O    0.000000
     2  C    2.448503   0.000000
     3  C    2.993165   1.529160   0.000000
     4  C    1.415703   1.522478   2.555967   0.000000
     5  C    3.563737   2.556819   1.526436   3.059632   0.000000
     6  H    2.741994   2.155868   1.093183   2.851270   2.158582
     7  H    3.986497   2.143694   1.090902   3.478236   2.150347
     8  H    3.363590   1.093907   2.155802   2.133018   2.832854
     9  H    2.730152   1.091490   2.153557   2.138783   3.487024
    10  H    2.070913   2.164159   2.865113   1.094991   2.787743
    11  H    2.006767   2.151990   3.487354   1.089089   4.074327
    12  H    4.179283   2.780341   2.169367   3.335122   1.091271
    13  H    4.396989   3.498632   2.172105   4.084743   1.089055
    14  H    3.101998   2.878866   2.183357   2.804113   1.091236
    15  H    0.959301   2.665614   2.680843   1.951503   3.060739
                    6          7          8          9         10
     6  H    0.000000
     7  H    1.739337   0.000000
     8  H    3.054801   2.455083   0.000000
     9  H    2.451788   2.461634   1.759639   0.000000
    10  H    3.313455   3.827959   2.443712   3.050771   0.000000
    11  H    3.803879   4.281943   2.475390   2.427552   1.757494
    12  H    3.069081   2.541990   2.619164   3.785270   2.883562
    13  H    2.524485   2.457588   3.791973   4.308329   3.832199
    14  H    2.507766   3.069954   3.290099   3.850493   2.313374
    15  H    2.246332   3.715279   3.628974   3.089148   2.317666
                   11         12         13         14         15
    11  H    0.000000
    12  H    4.196310   0.000000
    13  H    5.124569   1.763141   0.000000
    14  H    3.842454   1.758028   1.757032   0.000000
    15  H    2.812269   3.855179   3.740425   2.522850   0.000000
 Stoichiometry    C4H10O
 Framework group  C1[X(C4H10O)]
 Deg. of freedom    39
 Full point group                 C1      NOp   1
 Largest Abelian subgroup         C1      NOp   1
 Largest concise Abelian subgroup C1      NOp   1
                         Standard orientation:                         
 ---------------------------------------------------------------------
 Center     Atomic      Atomic             Coordinates (Angstroms)
 Number     Number       Type             X           Y           Z
 ---------------------------------------------------------------------
      1          8           0        1.714394   -0.718722   -0.414495
      2          6           0        0.096250    1.064277    0.030130
      3          6           0       -1.085402    0.323758   -0.597294
      4          6           0        1.179424    0.142627    0.573483
      5          6           0       -1.765207   -0.658535    0.352953
      6          1           0       -0.751092   -0.200160   -1.496625
      7          1           0       -1.815037    1.058483   -0.940629
      8          1           0       -0.261940    1.689943    0.852854
      9          1           0        0.542400    1.729098   -0.711701
     10          1           0        0.799824   -0.436215    1.421924
     11          1           0        2.019357    0.732804    0.937238
     12          1           0       -2.066793   -0.160355    1.275847
     13          1           0       -2.655377   -1.092577   -0.100089
     14          1           0       -1.105137   -1.482403    0.629262
     15          1           0        1.028247   -1.321602   -0.707745
 ---------------------------------------------------------------------
 Rotational constants (GHZ):           7.9264337           3.1535729           2.8170232
 Leave Link  202 at Mon Mar 11 00:05:03 2019, MaxMem=   671088640 cpu:               0.6 elap:               0.1
 (Enter /shared/centos7/gaussian/g16/l301.exe)
 Standard basis: 6-311+G(2df,2p) (5D, 7F)
 Ernie: Thresh=  0.10000D-02 Tol=  0.10000D-05 Strict=F.
 There are   285 symmetry adapted cartesian basis functions of A   symmetry.
 There are   260 symmetry adapted basis functions of A   symmetry.
   260 basis functions,   370 primitive gaussians,   285 cartesian basis functions
    21 alpha electrons       21 beta electrons
       nuclear repulsion energy       192.8206039180 Hartrees.
 IExCor= 4336 DFT=T Ex+Corr=M062X ExCW=0 ScaHFX=  0.540000
 ScaDFX=  1.000000  1.000000  1.000000  1.000000 ScalE2=  1.000000  1.000000
 IRadAn=      5 IRanWt=     -1 IRanGd=            0 ICorTp=0 IEmpDi=  4
 NAtoms=   15 NActive=   15 NUniq=   15 SFac= 1.00D+00 NAtFMM=   60 NAOKFM=F Big=F
 Integral buffers will be    131072 words long.
 Raffenetti 2 integral format.
 Two-electron integral symmetry is turned on.
 Leave Link  301 at Mon Mar 11 00:05:03 2019, MaxMem=   671088640 cpu:               0.8 elap:               0.1
 (Enter /shared/centos7/gaussian/g16/l302.exe)
 NPDir=0 NMtPBC=     1 NCelOv=     1 NCel=       1 NClECP=     1 NCelD=      1
         NCelK=      1 NCelE2=     1 NClLst=     1 CellRange=     0.0.
 One-electron integrals computed using PRISM.
 One-electron integral symmetry used in STVInt
 NBasis=   260 RedAO= T EigKep=  4.06D-05  NBF=   260
 NBsUse=   260 1.00D-06 EigRej= -1.00D+00 NBFU=   260
 Precomputing XC quadrature grid using
 IXCGrd= 4 IRadAn=           5 IRanWt=          -1 IRanGd=           0 AccXCQ= 0.00D+00.
 Generated NRdTot=       0 NPtTot=           0 NUsed=           0 NTot=          32
 NSgBfM=   285   285   285   285   285 MxSgAt=    15 MxSgA2=    15.
 Leave Link  302 at Mon Mar 11 00:05:03 2019, MaxMem=   671088640 cpu:               5.6 elap:               0.3
 (Enter /shared/centos7/gaussian/g16/l303.exe)
 DipDrv:  MaxL=1.
 Leave Link  303 at Mon Mar 11 00:05:03 2019, MaxMem=   671088640 cpu:               0.7 elap:               0.1
 (Enter /shared/centos7/gaussian/g16/l401.exe)
 ExpMin= 4.38D-02 ExpMax= 8.59D+03 ExpMxC= 1.30D+03 IAcc=3 IRadAn=         5 AccDes= 0.00D+00
 Harris functional with IExCor= 1009 and IRadAn=       5 diagonalized for initial guess.
 HarFok:  IExCor= 1009 AccDes= 0.00D+00 IRadAn=         5 IDoV= 1 UseB2=F ITyADJ=14
 ICtDFT=  3500011 ScaDFX=  1.000000  1.000000  1.000000  1.000000
 FoFCou: FMM=F IPFlag=           0 FMFlag=      100000 FMFlg1=           0
         NFxFlg=           0 DoJE=T BraDBF=F KetDBF=T FulRan=T
         wScrn=  0.000000 ICntrl=       500 IOpCl=  0 I1Cent=   200000004 NGrid=           0
         NMat0=    1 NMatS0=      1 NMatT0=    0 NMatD0=    1 NMtDS0=    0 NMtDT0=    0
 Petite list used in FoFCou.
 Harris En= -233.599611112590    
 JPrj=0 DoOrth=F DoCkMO=F.
 Leave Link  401 at Mon Mar 11 00:05:04 2019, MaxMem=   671088640 cpu:              23.5 elap:               1.2
 (Enter /shared/centos7/gaussian/g16/l502.exe)
 Integral symmetry usage will be decided dynamically.
 Closed shell SCF:
 Using DIIS extrapolation, IDIIS=  1040.
 NGot=   671088640 LenX=   670917793 LenY=   670836127
 Requested convergence on RMS density matrix=1.00D-08 within 128 cycles.
 Requested convergence on MAX density matrix=1.00D-06.
 Requested convergence on             energy=1.00D-06.
 No special actions if energy rises.
 Fock matrices will be formed incrementally for  20 cycles.

 Cycle   1  Pass 1  IDiag  1:
 FoFJK:  IHMeth= 1 ICntrl=       0 DoSepK=F KAlg= 0 I1Cent=           0 FoldK=F
 IRaf= 990000000 NMat=       1 IRICut=       1 DoRegI=T DoRafI=F ISym2E= 0 IDoP0=0 IntGTp=1.
 FoFCou: FMM=F IPFlag=           0 FMFlag=      100000 FMFlg1=           0
         NFxFlg=           0 DoJE=F BraDBF=F KetDBF=F FulRan=T
         wScrn=  0.000000 ICntrl=         0 IOpCl=  0 I1Cent=           0 NGrid=           0
         NMat0=    1 NMatS0=      1 NMatT0=    0 NMatD0=    1 NMtDS0=    0 NMtDT0=    0
 Symmetry not used in FoFCou.
 E= -233.414406077049    
 DIIS: error= 2.36D-02 at cycle   1 NSaved=   1.
 NSaved= 1 IEnMin= 1 EnMin= -233.414406077049     IErMin= 1 ErrMin= 2.36D-02
 ErrMax= 2.36D-02  0.00D+00 EMaxC= 1.00D-01 BMatC= 2.60D-01 BMatP= 2.60D-01
 IDIUse=3 WtCom= 7.64D-01 WtEn= 2.36D-01
 Coeff-Com:  0.100D+01
 Coeff-En:   0.100D+01
 Coeff:      0.100D+01
 Gap=     0.293 Goal=   None    Shift=    0.000
 GapD=    0.293 DampG=1.000 DampE=0.500 DampFc=0.5000 IDamp=-1.
 Damping current iteration by 5.00D-01
 RMSDP=2.98D-03 MaxDP=1.12D-01              OVMax= 1.49D-01

 Cycle   2  Pass 1  IDiag  1:
 RMSU=  1.47D-03    CP:  9.72D-01
 E= -233.523323290499     Delta-E=       -0.108917213449 Rises=F Damp=T
 DIIS: error= 7.58D-03 at cycle   2 NSaved=   2.
 NSaved= 2 IEnMin= 2 EnMin= -233.523323290499     IErMin= 2 ErrMin= 7.58D-03
 ErrMax= 7.58D-03  0.00D+00 EMaxC= 1.00D-01 BMatC= 1.49D-02 BMatP= 2.60D-01
 IDIUse=3 WtCom= 9.24D-01 WtEn= 7.58D-02
 Coeff-Com: -0.670D-01 0.107D+01
 Coeff-En:   0.000D+00 0.100D+01
 Coeff:     -0.619D-01 0.106D+01
 Gap=     0.369 Goal=   None    Shift=    0.000
 RMSDP=9.98D-04 MaxDP=4.99D-02 DE=-1.09D-01 OVMax= 7.92D-02

 Cycle   3  Pass 1  IDiag  1:
 RMSU=  9.89D-04    CP:  9.71D-01  9.07D-01
 E= -233.630337485026     Delta-E=       -0.107014194528 Rises=F Damp=F
 DIIS: error= 2.27D-03 at cycle   3 NSaved=   3.
 NSaved= 3 IEnMin= 3 EnMin= -233.630337485026     IErMin= 3 ErrMin= 2.27D-03
 ErrMax= 2.27D-03  0.00D+00 EMaxC= 1.00D-01 BMatC= 3.10D-03 BMatP= 1.49D-02
 IDIUse=3 WtCom= 9.77D-01 WtEn= 2.27D-02
 Coeff-Com: -0.665D-01 0.301D+00 0.766D+00
 Coeff-En:   0.000D+00 0.000D+00 0.100D+01
 Coeff:     -0.650D-01 0.294D+00 0.771D+00
 Gap=     0.354 Goal=   None    Shift=    0.000
 RMSDP=1.83D-04 MaxDP=9.67D-03 DE=-1.07D-01 OVMax= 1.25D-02

 Cycle   4  Pass 1  IDiag  1:
 RMSU=  1.64D-04    CP:  9.70D-01  9.54D-01  9.61D-01
 E= -233.632176122716     Delta-E=       -0.001838637689 Rises=F Damp=F
 DIIS: error= 9.55D-04 at cycle   4 NSaved=   4.
 NSaved= 4 IEnMin= 4 EnMin= -233.632176122716     IErMin= 4 ErrMin= 9.55D-04
 ErrMax= 9.55D-04  0.00D+00 EMaxC= 1.00D-01 BMatC= 5.51D-04 BMatP= 3.10D-03
 IDIUse=3 WtCom= 9.90D-01 WtEn= 9.55D-03
 Coeff-Com: -0.242D-01 0.710D-01 0.345D+00 0.608D+00
 Coeff-En:   0.000D+00 0.000D+00 0.232D-01 0.977D+00
 Coeff:     -0.240D-01 0.703D-01 0.342D+00 0.612D+00
 Gap=     0.356 Goal=   None    Shift=    0.000
 RMSDP=7.45D-05 MaxDP=3.66D-03 DE=-1.84D-03 OVMax= 4.52D-03

 Cycle   5  Pass 1  IDiag  1:
 RMSU=  5.29D-05    CP:  9.69D-01  9.39D-01  9.73D-01  7.28D-01
 E= -233.632562199930     Delta-E=       -0.000386077214 Rises=F Damp=F
 DIIS: error= 4.02D-04 at cycle   5 NSaved=   5.
 NSaved= 5 IEnMin= 5 EnMin= -233.632562199930     IErMin= 5 ErrMin= 4.02D-04
 ErrMax= 4.02D-04  0.00D+00 EMaxC= 1.00D-01 BMatC= 3.15D-05 BMatP= 5.51D-04
 IDIUse=3 WtCom= 9.96D-01 WtEn= 4.02D-03
 Coeff-Com: -0.445D-02 0.662D-02 0.775D-01 0.248D+00 0.672D+00
 Coeff-En:   0.000D+00 0.000D+00 0.000D+00 0.000D+00 0.100D+01
 Coeff:     -0.443D-02 0.659D-02 0.772D-01 0.247D+00 0.673D+00
 Gap=     0.355 Goal=   None    Shift=    0.000
 RMSDP=3.16D-05 MaxDP=1.51D-03 DE=-3.86D-04 OVMax= 8.91D-04

 Cycle   6  Pass 1  IDiag  1:
 RMSU=  2.43D-05    CP:  9.69D-01  9.41D-01  9.84D-01  7.97D-01  7.82D-01
 E= -233.632586678149     Delta-E=       -0.000024478219 Rises=F Damp=F
 DIIS: error= 4.52D-05 at cycle   6 NSaved=   6.
 NSaved= 6 IEnMin= 6 EnMin= -233.632586678149     IErMin= 6 ErrMin= 4.52D-05
 ErrMax= 4.52D-05  0.00D+00 EMaxC= 1.00D-01 BMatC= 6.52D-07 BMatP= 3.15D-05
 IDIUse=1 WtCom= 1.00D+00 WtEn= 0.00D+00
 Coeff-Com:  0.426D-03-0.211D-02-0.362D-03 0.253D-01 0.144D+00 0.833D+00
 Coeff:      0.426D-03-0.211D-02-0.362D-03 0.253D-01 0.144D+00 0.833D+00
 Gap=     0.355 Goal=   None    Shift=    0.000
 RMSDP=6.26D-06 MaxDP=1.98D-04 DE=-2.45D-05 OVMax= 2.21D-04

 Cycle   7  Pass 1  IDiag  1:
 RMSU=  4.07D-06    CP:  9.69D-01  9.39D-01  9.84D-01  8.05D-01  8.40D-01
                    CP:  1.02D+00
 E= -233.632587294189     Delta-E=       -0.000000616040 Rises=F Damp=F
 DIIS: error= 1.53D-05 at cycle   7 NSaved=   7.
 NSaved= 7 IEnMin= 7 EnMin= -233.632587294189     IErMin= 7 ErrMin= 1.53D-05
 ErrMax= 1.53D-05  0.00D+00 EMaxC= 1.00D-01 BMatC= 9.83D-08 BMatP= 6.52D-07
 IDIUse=1 WtCom= 1.00D+00 WtEn= 0.00D+00
 Coeff-Com:  0.612D-03-0.142D-02-0.814D-02-0.164D-01-0.202D-01 0.282D+00
 Coeff-Com:  0.764D+00
 Coeff:      0.612D-03-0.142D-02-0.814D-02-0.164D-01-0.202D-01 0.282D+00
 Coeff:      0.764D+00
 Gap=     0.355 Goal=   None    Shift=    0.000
 RMSDP=1.94D-06 MaxDP=9.54D-05 DE=-6.16D-07 OVMax= 7.95D-05

 Cycle   8  Pass 1  IDiag  1:
 RMSU=  1.05D-06    CP:  9.69D-01  9.38D-01  9.85D-01  8.08D-01  8.46D-01
                    CP:  1.07D+00  1.08D+00
 E= -233.632587389258     Delta-E=       -0.000000095069 Rises=F Damp=F
 DIIS: error= 3.02D-06 at cycle   8 NSaved=   8.
 NSaved= 8 IEnMin= 8 EnMin= -233.632587389258     IErMin= 8 ErrMin= 3.02D-06
 ErrMax= 3.02D-06  0.00D+00 EMaxC= 1.00D-01 BMatC= 5.36D-09 BMatP= 9.83D-08
 IDIUse=1 WtCom= 1.00D+00 WtEn= 0.00D+00
 Coeff-Com:  0.161D-03-0.337D-03-0.261D-02-0.671D-02-0.151D-01 0.403D-01
 Coeff-Com:  0.245D+00 0.739D+00
 Coeff:      0.161D-03-0.337D-03-0.261D-02-0.671D-02-0.151D-01 0.403D-01
 Coeff:      0.245D+00 0.739D+00
 Gap=     0.355 Goal=   None    Shift=    0.000
 RMSDP=3.50D-07 MaxDP=1.40D-05 DE=-9.51D-08 OVMax= 1.67D-05

 Cycle   9  Pass 1  IDiag  1:
 RMSU=  2.92D-07    CP:  9.69D-01  9.38D-01  9.85D-01  8.08D-01  8.45D-01
                    CP:  1.07D+00  1.11D+00  1.01D+00
 E= -233.632587394794     Delta-E=       -0.000000005535 Rises=F Damp=F
 DIIS: error= 5.71D-07 at cycle   9 NSaved=   9.
 NSaved= 9 IEnMin= 9 EnMin= -233.632587394794     IErMin= 9 ErrMin= 5.71D-07
 ErrMax= 5.71D-07  0.00D+00 EMaxC= 1.00D-01 BMatC= 1.39D-10 BMatP= 5.36D-09
 IDIUse=1 WtCom= 1.00D+00 WtEn= 0.00D+00
 Coeff-Com: -0.185D-04 0.404D-04 0.112D-03 0.338D-04-0.689D-03-0.907D-02
 Coeff-Com: -0.808D-02 0.114D+00 0.904D+00
 Coeff:     -0.185D-04 0.404D-04 0.112D-03 0.338D-04-0.689D-03-0.907D-02
 Coeff:     -0.808D-02 0.114D+00 0.904D+00
 Gap=     0.355 Goal=   None    Shift=    0.000
 RMSDP=1.31D-07 MaxDP=5.26D-06 DE=-5.54D-09 OVMax= 3.43D-06

 Cycle  10  Pass 1  IDiag  1:
 RMSU=  5.31D-08    CP:  9.69D-01  9.38D-01  9.85D-01  8.08D-01  8.45D-01
                    CP:  1.07D+00  1.13D+00  1.07D+00  1.08D+00
 E= -233.632587394946     Delta-E=       -0.000000000153 Rises=F Damp=F
 DIIS: error= 1.33D-07 at cycle  10 NSaved=  10.
 NSaved=10 IEnMin=10 EnMin= -233.632587394946     IErMin=10 ErrMin= 1.33D-07
 ErrMax= 1.33D-07  0.00D+00 EMaxC= 1.00D-01 BMatC= 9.38D-12 BMatP= 1.39D-10
 IDIUse=1 WtCom= 1.00D+00 WtEn= 0.00D+00
 Coeff-Com: -0.980D-05 0.215D-04 0.110D-03 0.198D-03 0.215D-03-0.393D-02
 Coeff-Com: -0.971D-02 0.943D-02 0.235D+00 0.769D+00
 Coeff:     -0.980D-05 0.215D-04 0.110D-03 0.198D-03 0.215D-03-0.393D-02
 Coeff:     -0.971D-02 0.943D-02 0.235D+00 0.769D+00
 Gap=     0.355 Goal=   None    Shift=    0.000
 RMSDP=2.46D-08 MaxDP=1.07D-06 DE=-1.53D-10 OVMax= 1.15D-06

 Cycle  11  Pass 1  IDiag  1:
 RMSU=  1.36D-08    CP:  9.69D-01  9.38D-01  9.85D-01  8.08D-01  8.45D-01
                    CP:  1.07D+00  1.13D+00  1.09D+00  1.11D+00  1.10D+00
 E= -233.632587394959     Delta-E=       -0.000000000013 Rises=F Damp=F
 DIIS: error= 5.13D-08 at cycle  11 NSaved=  11.
 NSaved=11 IEnMin=11 EnMin= -233.632587394959     IErMin=11 ErrMin= 5.13D-08
 ErrMax= 5.13D-08  0.00D+00 EMaxC= 1.00D-01 BMatC= 1.44D-12 BMatP= 9.38D-12
 IDIUse=1 WtCom= 1.00D+00 WtEn= 0.00D+00
 Coeff-Com: -0.531D-06 0.163D-05 0.186D-04 0.454D-04 0.110D-03-0.247D-03
 Coeff-Com: -0.196D-02-0.878D-02-0.254D-01 0.253D+00 0.784D+00
 Coeff:     -0.531D-06 0.163D-05 0.186D-04 0.454D-04 0.110D-03-0.247D-03
 Coeff:     -0.196D-02-0.878D-02-0.254D-01 0.253D+00 0.784D+00
 Gap=     0.355 Goal=   None    Shift=    0.000
 RMSDP=9.41D-09 MaxDP=4.71D-07 DE=-1.26D-11 OVMax= 3.38D-07

 SCF Done:  E(RM062X) =  -233.632587395     A.U. after   11 cycles
            NFock= 11  Conv=0.94D-08     -V/T= 2.0040
 KE= 2.327006334005D+02 PE=-9.299469784924D+02 EE= 2.707931537789D+02
 Leave Link  502 at Mon Mar 11 00:05:34 2019, MaxMem=   671088640 cpu:             588.7 elap:              29.5
 (Enter /shared/centos7/gaussian/g16/l801.exe)
 DoSCS=F DFT=T ScalE2(SS,OS)=  1.000000  1.000000
 Range of M.O.s used for correlation:     1   260
 NBasis=   260 NAE=    21 NBE=    21 NFC=     0 NFV=     0
 NROrb=    260 NOA=    21 NOB=    21 NVA=   239 NVB=   239

 **** Warning!!: The largest alpha MO coefficient is  0.47594492D+02

 Leave Link  801 at Mon Mar 11 00:05:34 2019, MaxMem=   671088640 cpu:               0.3 elap:               0.0
 (Enter /shared/centos7/gaussian/g16/l1101.exe)
 Using compressed storage, NAtomX=    15.
 Will process     16 centers per pass.
 Leave Link 1101 at Mon Mar 11 00:05:34 2019, MaxMem=   671088640 cpu:               6.4 elap:               0.3
 (Enter /shared/centos7/gaussian/g16/l1102.exe)
 Symmetrizing basis deriv contribution to polar:
 IMax=3 JMax=2 DiffMx= 0.00D+00
 Leave Link 1102 at Mon Mar 11 00:05:34 2019, MaxMem=   671088640 cpu:               0.5 elap:               0.0
 (Enter /shared/centos7/gaussian/g16/l1110.exe)
 Forming Gx(P) for the SCF density, NAtomX=    15.
 Integral derivatives from FoFJK, PRISM(SPDF).
 Do as many integral derivatives as possible in FoFJK.
 G2DrvN: MDV=     671087424.
 G2DrvN: will do    16 centers at a time, making    1 passes.
 Calling FoFCou, ICntrl=  3107 FMM=F I1Cent=   0 AccDes= 0.00D+00.
 FoFJK:  IHMeth= 1 ICntrl=    3107 DoSepK=F KAlg= 0 I1Cent=           0 FoldK=F
 IRaf=         0 NMat=       1 IRICut=       1 DoRegI=T DoRafI=F ISym2E= 0 IDoP0=0 IntGTp=1.
 FoFCou: FMM=F IPFlag=           0 FMFlag=      100000 FMFlg1=           0
         NFxFlg=           0 DoJE=F BraDBF=F KetDBF=F FulRan=T
         wScrn=  0.000000 ICntrl=      3107 IOpCl=  0 I1Cent=           0 NGrid=           0
         NMat0=    1 NMatS0=      1 NMatT0=    0 NMatD0=    1 NMtDS0=    0 NMtDT0=    0
 Symmetry not used in FoFCou.
 End of G2Drv F.D. properties file   721 does not exist.
 End of G2Drv F.D. properties file   722 does not exist.
 End of G2Drv F.D. properties file   788 does not exist.
 Leave Link 1110 at Mon Mar 11 00:06:36 2019, MaxMem=   671088640 cpu:            1238.8 elap:              62.0
 (Enter /shared/centos7/gaussian/g16/l1002.exe)
 Minotr:  Closed shell wavefunction.
          IDoAtm=111111111111111
          Direct CPHF calculation.
          Differentiating once with respect to nuclear coordinates.
          Requested convergence is 1.0D-08 RMS, and 1.0D-07 maximum.
          Secondary convergence is 1.0D-12 RMS, and 1.0D-12 maximum.
          NewPWx=T KeepS1=F KeepF1=F KeepIn=T MapXYZ=F SortEE=F KeepMc=T.
         4555 words used for storage of precomputed grid.
 Keep R1 ints in memory in canonical form, NReq=597923357.
 FoFCou: FMM=F IPFlag=           0 FMFlag=           0 FMFlg1=           0
         NFxFlg=           0 DoJE=F BraDBF=F KetDBF=F FulRan=T
         wScrn=  0.000000 ICntrl=       600 IOpCl=  0 I1Cent=           0 NGrid=           0
         NMat0=    1 NMatS0=  33930 NMatT0=    0 NMatD0=    1 NMtDS0=    0 NMtDT0=    0
 Symmetry not used in FoFCou.
 Two-electron integral symmetry not used.
          MDV=     671088640 using IRadAn=       1.
          Solving linear equations simultaneously, MaxMat=       0.
          There are    48 degrees of freedom in the 1st order CPHF.  IDoFFX=6 NUNeed=     0.
     42 vectors produced by pass  0 Test12= 1.05D-14 2.08D-09 XBig12= 5.72D-02 3.74D-02.
 AX will form    42 AO Fock derivatives at one time.
     42 vectors produced by pass  1 Test12= 1.05D-14 2.08D-09 XBig12= 4.67D-03 1.15D-02.
     42 vectors produced by pass  2 Test12= 1.05D-14 2.08D-09 XBig12= 2.01D-04 1.70D-03.
     42 vectors produced by pass  3 Test12= 1.05D-14 2.08D-09 XBig12= 2.15D-06 1.75D-04.
     42 vectors produced by pass  4 Test12= 1.05D-14 2.08D-09 XBig12= 1.24D-08 1.27D-05.
     42 vectors produced by pass  5 Test12= 1.05D-14 2.08D-09 XBig12= 5.66D-11 9.17D-07.
     18 vectors produced by pass  6 Test12= 1.05D-14 2.08D-09 XBig12= 2.05D-13 5.13D-08.
      1 vectors produced by pass  7 Test12= 1.05D-14 2.08D-09 XBig12= 7.66D-16 2.58D-09.
 InvSVY:  IOpt=1 It=  1 EMax= 1.55D-15
 Solved reduced A of dimension   271 with    42 vectors.
 End of Minotr F.D. properties file   721 does not exist.
 End of Minotr F.D. properties file   722 does not exist.
 End of Minotr F.D. properties file   788 does not exist.
 Leave Link 1002 at Mon Mar 11 00:07:45 2019, MaxMem=   671088640 cpu:            1351.3 elap:              68.7
 (Enter /shared/centos7/gaussian/g16/l601.exe)
 Copying SCF densities to generalized density rwf, IOpCl= 0 IROHF=0.

 **********************************************************************

            Population analysis using the SCF density.

 **********************************************************************

 Orbital symmetries:
       Occupied  (A) (A) (A) (A) (A) (A) (A) (A) (A) (A) (A) (A)
                 (A) (A) (A) (A) (A) (A) (A) (A) (A)
       Virtual   (A) (A) (A) (A) (A) (A) (A) (A) (A) (A) (A) (A)
                 (A) (A) (A) (A) (A) (A) (A) (A) (A) (A) (A) (A)
                 (A) (A) (A) (A) (A) (A) (A) (A) (A) (A) (A) (A)
                 (A) (A) (A) (A) (A) (A) (A) (A) (A) (A) (A) (A)
                 (A) (A) (A) (A) (A) (A) (A) (A) (A) (A) (A) (A)
                 (A) (A) (A) (A) (A) (A) (A) (A) (A) (A) (A) (A)
                 (A) (A) (A) (A) (A) (A) (A) (A) (A) (A) (A) (A)
                 (A) (A) (A) (A) (A) (A) (A) (A) (A) (A) (A) (A)
                 (A) (A) (A) (A) (A) (A) (A) (A) (A) (A) (A) (A)
                 (A) (A) (A) (A) (A) (A) (A) (A) (A) (A) (A) (A)
                 (A) (A) (A) (A) (A) (A) (A) (A) (A) (A) (A) (A)
                 (A) (A) (A) (A) (A) (A) (A) (A) (A) (A) (A) (A)
                 (A) (A) (A) (A) (A) (A) (A) (A) (A) (A) (A) (A)
                 (A) (A) (A) (A) (A) (A) (A) (A) (A) (A) (A) (A)
                 (A) (A) (A) (A) (A) (A) (A) (A) (A) (A) (A) (A)
                 (A) (A) (A) (A) (A) (A) (A) (A) (A) (A) (A) (A)
                 (A) (A) (A) (A) (A) (A) (A) (A) (A) (A) (A) (A)
                 (A) (A) (A) (A) (A) (A) (A) (A) (A) (A) (A) (A)
                 (A) (A) (A) (A) (A) (A) (A) (A) (A) (A) (A) (A)
                 (A) (A) (A) (A) (A) (A) (A) (A) (A) (A) (A)
 The electronic state is 1-A.
 Alpha  occ. eigenvalues --  -19.61857 -10.57705 -10.53581 -10.53011 -10.52933
 Alpha  occ. eigenvalues --   -1.14304  -0.89848  -0.81579  -0.73756  -0.65801
 Alpha  occ. eigenvalues --   -0.58748  -0.54821  -0.52569  -0.48601  -0.48250
 Alpha  occ. eigenvalues --   -0.46083  -0.41750  -0.40990  -0.39745  -0.38175
 Alpha  occ. eigenvalues --   -0.34509
 Alpha virt. eigenvalues --    0.01012   0.02654   0.02935   0.03662   0.05842
 Alpha virt. eigenvalues --    0.06182   0.06705   0.07013   0.07563   0.10378
 Alpha virt. eigenvalues --    0.10574   0.11490   0.11657   0.12371   0.14624
 Alpha virt. eigenvalues --    0.16326   0.17900   0.18842   0.20456   0.21950
 Alpha virt. eigenvalues --    0.22548   0.23173   0.24636   0.25258   0.26193
 Alpha virt. eigenvalues --    0.26612   0.27262   0.27648   0.29765   0.29943
 Alpha virt. eigenvalues --    0.30148   0.31613   0.32534   0.37961   0.41318
 Alpha virt. eigenvalues --    0.41457   0.45265   0.46238   0.47228   0.48910
 Alpha virt. eigenvalues --    0.51985   0.52984   0.54076   0.55829   0.57556
 Alpha virt. eigenvalues --    0.57872   0.58519   0.59028   0.61188   0.62099
 Alpha virt. eigenvalues --    0.62316   0.62854   0.64653   0.65495   0.67124
 Alpha virt. eigenvalues --    0.69204   0.69415   0.71122   0.72041   0.75034
 Alpha virt. eigenvalues --    0.79277   0.82686   0.83266   0.86151   0.88872
 Alpha virt. eigenvalues --    0.89679   0.96136   0.97596   1.00132   1.01691
 Alpha virt. eigenvalues --    1.05237   1.06346   1.07360   1.08686   1.10777
 Alpha virt. eigenvalues --    1.13572   1.14623   1.15840   1.17583   1.18830
 Alpha virt. eigenvalues --    1.19391   1.20392   1.21596   1.24326   1.27084
 Alpha virt. eigenvalues --    1.28564   1.29585   1.29923   1.33208   1.34399
 Alpha virt. eigenvalues --    1.35836   1.36994   1.38442   1.39795   1.42426
 Alpha virt. eigenvalues --    1.43463   1.44216   1.47262   1.47615   1.48917
 Alpha virt. eigenvalues --    1.51311   1.52319   1.54622   1.55336   1.56305
 Alpha virt. eigenvalues --    1.56741   1.61058   1.63584   1.64201   1.67080
 Alpha virt. eigenvalues --    1.70555   1.73770   1.74714   1.78186   1.97320
 Alpha virt. eigenvalues --    2.10175   2.15373   2.29280   2.31298   2.39472
 Alpha virt. eigenvalues --    2.46023   2.48986   2.54676   2.55965   2.58559
 Alpha virt. eigenvalues --    2.63769   2.67143   2.73925   2.76440   2.80922
 Alpha virt. eigenvalues --    2.82810   2.85153   2.86054   2.89228   2.92859
 Alpha virt. eigenvalues --    2.93487   2.99099   2.99689   3.01359   3.06107
 Alpha virt. eigenvalues --    3.08427   3.10723   3.15380   3.17532   3.19333
 Alpha virt. eigenvalues --    3.21063   3.23237   3.27038   3.27699   3.32464
 Alpha virt. eigenvalues --    3.32626   3.35114   3.37202   3.39370   3.43072
 Alpha virt. eigenvalues --    3.45080   3.49402   3.51138   3.52329   3.54761
 Alpha virt. eigenvalues --    3.59639   3.61736   3.64571   3.65823   3.67623
 Alpha virt. eigenvalues --    3.67991   3.72164   3.74297   3.77975   3.79180
 Alpha virt. eigenvalues --    3.80615   3.84164   3.85952   3.89046   3.92768
 Alpha virt. eigenvalues --    3.96077   3.97585   3.97870   4.00570   4.01357
 Alpha virt. eigenvalues --    4.04381   4.07548   4.12973   4.14090   4.16650
 Alpha virt. eigenvalues --    4.18852   4.19654   4.21816   4.23127   4.25788
 Alpha virt. eigenvalues --    4.26839   4.27695   4.32265   4.34515   4.36583
 Alpha virt. eigenvalues --    4.38019   4.42997   4.43230   4.51146   4.54016
 Alpha virt. eigenvalues --    4.55578   4.56697   4.58199   4.58714   4.62841
 Alpha virt. eigenvalues --    4.64077   4.66537   4.71580   4.76347   4.99364
 Alpha virt. eigenvalues --    5.19948   5.24499   5.25434   5.28022   5.38017
 Alpha virt. eigenvalues --    5.41285   5.43416   5.47472   5.52951   5.58386
 Alpha virt. eigenvalues --    5.60162   5.60899   5.66799   5.68385   5.72051
 Alpha virt. eigenvalues --    5.85843   5.96759   6.51681   6.99866   7.19598
 Alpha virt. eigenvalues --    7.23151   7.24178   7.52324   7.63888  24.31201
 Alpha virt. eigenvalues --   24.34887  24.44581  24.49235  50.15028
          Condensed to atoms (all electrons):
               1          2          3          4          5          6
     1  O    8.074372   0.009663  -0.023843   0.142409  -0.015357   0.003741
     2  C    0.009663   5.470066   0.002322   0.225618  -0.056288  -0.018770
     3  C   -0.023843   0.002322   5.517498  -0.062837   0.078853   0.469256
     4  C    0.142409   0.225618  -0.062837   5.066586   0.062577  -0.027792
     5  C   -0.015357  -0.056288   0.078853   0.062577   5.248917  -0.066606
     6  H    0.003741  -0.018770   0.469256  -0.027792  -0.066606   0.496670
     7  H   -0.000966  -0.051424   0.438923   0.017480  -0.026490  -0.026053
     8  H    0.006728   0.445408  -0.009952  -0.062118  -0.017427   0.004344
     9  H   -0.008266   0.441427  -0.050342  -0.033401   0.014478  -0.005595
    10  H   -0.040260   0.002324  -0.029072   0.413632  -0.000734   0.000811
    11  H   -0.054717  -0.060380   0.020669   0.456714  -0.000469  -0.000382
    12  H    0.000696  -0.002950  -0.030675  -0.010499   0.422173   0.005457
    13  H    0.000035   0.025392  -0.061104  -0.001009   0.429527  -0.002293
    14  H   -0.002483  -0.034719   0.000770   0.016841   0.390383  -0.008976
    15  H    0.245318  -0.039054   0.063059  -0.006999  -0.026396  -0.005420
               7          8          9         10         11         12
     1  O   -0.000966   0.006728  -0.008266  -0.040260  -0.054717   0.000696
     2  C   -0.051424   0.445408   0.441427   0.002324  -0.060380  -0.002950
     3  C    0.438923  -0.009952  -0.050342  -0.029072   0.020669  -0.030675
     4  C    0.017480  -0.062118  -0.033401   0.413632   0.456714  -0.010499
     5  C   -0.026490  -0.017427   0.014478  -0.000734  -0.000469   0.422173
     6  H   -0.026053   0.004344  -0.005595   0.000811  -0.000382   0.005457
     7  H    0.511698  -0.007231  -0.004513  -0.000439  -0.000111  -0.005930
     8  H   -0.007231   0.502261  -0.023495  -0.004471  -0.002215   0.000071
     9  H   -0.004513  -0.023495   0.495896   0.004919  -0.007530   0.000201
    10  H   -0.000439  -0.004471   0.004919   0.551835  -0.030768  -0.000736
    11  H   -0.000111  -0.002215  -0.007530  -0.030768   0.522946  -0.000073
    12  H   -0.005930   0.000071   0.000201  -0.000736  -0.000073   0.530840
    13  H   -0.006283  -0.000114  -0.000180   0.000467   0.000013  -0.022507
    14  H    0.006071   0.000261  -0.000394  -0.009079   0.000511  -0.036775
    15  H    0.000081  -0.000185  -0.000392  -0.010217   0.008768  -0.000017
              13         14         15
     1  O    0.000035  -0.002483   0.245318
     2  C    0.025392  -0.034719  -0.039054
     3  C   -0.061104   0.000770   0.063059
     4  C   -0.001009   0.016841  -0.006999
     5  C    0.429527   0.390383  -0.026396
     6  H   -0.002293  -0.008976  -0.005420
     7  H   -0.006283   0.006071   0.000081
     8  H   -0.000114   0.000261  -0.000185
     9  H   -0.000180  -0.000394  -0.000392
    10  H    0.000467  -0.009079  -0.010217
    11  H    0.000013   0.000511   0.008768
    12  H   -0.022507  -0.036775  -0.000017
    13  H    0.519655  -0.025065  -0.000038
    14  H   -0.025065   0.565758   0.004600
    15  H   -0.000038   0.004600   0.520770
 Mulliken charges:
               1
     1  O   -0.337070
     2  C   -0.358636
     3  C   -0.323526
     4  C   -0.197200
     5  C   -0.437144
     6  H    0.181609
     7  H    0.155188
     8  H    0.168135
     9  H    0.177186
    10  H    0.151788
    11  H    0.147023
    12  H    0.150724
    13  H    0.143505
    14  H    0.132295
    15  H    0.246122
 Sum of Mulliken charges =  -0.00000
 Mulliken charges with hydrogens summed into heavy atoms:
               1
     1  O   -0.090947
     2  C   -0.013314
     3  C    0.013271
     4  C    0.101611
     5  C   -0.010620
 APT charges:
               1
     1  O   -0.589526
     2  C   -0.836570
     3  C   -0.749587
     4  C   -0.627427
     5  C   -1.167697
     6  H    0.316827
     7  H    0.487911
     8  H    0.401917
     9  H    0.427338
    10  H    0.304187
    11  H    0.502862
    12  H    0.364386
    13  H    0.531948
    14  H    0.229654
    15  H    0.403776
 Sum of APT charges =  -0.00000
 APT charges with hydrogens summed into heavy atoms:
               1
     1  O   -0.185750
     2  C   -0.007315
     3  C    0.055151
     4  C    0.179623
     5  C   -0.041708
 Electronic spatial extent (au):  <R**2>=            517.7868
 Charge=             -0.0000 electrons
 Dipole moment (field-independent basis, Debye):
    X=             -1.7930    Y=              0.1937    Z=              0.4877  Tot=              1.8682
 Quadrupole moment (field-independent basis, Debye-Ang):
   XX=            -38.0638   YY=            -32.1649   ZZ=            -33.3395
   XY=              1.7635   XZ=              1.8393   YZ=              0.9224
 Traceless Quadrupole moment (field-independent basis, Debye-Ang):
   XX=             -3.5411   YY=              2.3579   ZZ=              1.1832
   XY=              1.7635   XZ=              1.8393   YZ=              0.9224
 Octapole moment (field-independent basis, Debye-Ang**2):
  XXX=             -4.6068  YYY=             -5.1693  ZZZ=             -1.4153  XYY=              2.3243
  XXY=              5.4486  XXZ=              3.1212  XZZ=              1.8251  YZZ=             -1.3898
  YYZ=             -2.5465  XYZ=             -0.0988
 Hexadecapole moment (field-independent basis, Debye-Ang**3):
 XXXX=           -432.7582 YYYY=           -160.5489 ZZZZ=           -112.4847 XXXY=             10.0866
 XXXZ=             10.0411 YYYX=             -6.6485 YYYZ=              4.4726 ZZZX=             -2.7221
 ZZZY=              3.6041 XXYY=            -98.5800 XXZZ=            -89.4326 YYZZ=            -42.8911
 XXYZ=              1.5748 YYXZ=             -1.6303 ZZXY=             -2.8646
 N-N= 1.928206039180D+02 E-N=-9.299469773035D+02  KE= 2.327006334005D+02
  Exact polarizability:   0.000   0.000   0.000   0.000   0.000   0.000
 Approx polarizability:  62.035   0.625  61.679  -0.075   1.320  61.919
 No NMR shielding tensors so no spin-rotation constants.
 Leave Link  601 at Mon Mar 11 00:07:45 2019, MaxMem=   671088640 cpu:               5.6 elap:               0.3
 (Enter /shared/centos7/gaussian/g16/l701.exe)
 ... and contract with generalized density number  0.
 Compute integral second derivatives.
 Leave Link  701 at Mon Mar 11 00:07:46 2019, MaxMem=   671088640 cpu:               5.3 elap:               0.3
 (Enter /shared/centos7/gaussian/g16/l702.exe)
 L702 exits ... SP integral derivatives will be done elsewhere.
 Leave Link  702 at Mon Mar 11 00:07:46 2019, MaxMem=   671088640 cpu:               0.4 elap:               0.1
 (Enter /shared/centos7/gaussian/g16/l703.exe)
 Integral derivatives from FoFJK, PRISM(SPDF).
 Compute integral second derivatives, UseDBF=F ICtDFT=           0.
 Calling FoFJK, ICntrl=    100147 FMM=F ISym2X=0 I1Cent= 0 IOpClX= 0 NMat=1 NMatS=1 NMatT=0.
 FoFJK:  IHMeth= 1 ICntrl=  100147 DoSepK=F KAlg= 0 I1Cent=           0 FoldK=F
 IRaf=         0 NMat=       1 IRICut=       1 DoRegI=T DoRafI=F ISym2E= 0 IDoP0=0 IntGTp=1.
 FoFCou: FMM=F IPFlag=           0 FMFlag=      100000 FMFlg1=         800
         NFxFlg=           0 DoJE=F BraDBF=F KetDBF=F FulRan=T
         wScrn=  0.000000 ICntrl=    100147 IOpCl=  0 I1Cent=           0 NGrid=           0
         NMat0=    1 NMatS0=      1 NMatT0=    0 NMatD0=    1 NMtDS0=    0 NMtDT0=    0
 Symmetry not used in FoFCou.
 Leave Link  703 at Mon Mar 11 00:09:06 2019, MaxMem=   671088640 cpu:            1608.4 elap:              80.5
 (Enter /shared/centos7/gaussian/g16/l716.exe)
 Dipole        =-7.05422630D-01 7.61940418D-02 1.91874178D-01
 Polarizability= 0.00000000D+00 0.00000000D+00 0.00000000D+00
                 0.00000000D+00 0.00000000D+00 0.00000000D+00
 ***** Axes restored to original set *****
 -------------------------------------------------------------------
 Center     Atomic                   Forces (Hartrees/Bohr)
 Number     Number              X              Y              Z
 -------------------------------------------------------------------
      1        8          -0.000002840   -0.000005454    0.000000513
      2        6           0.000000720    0.000001649   -0.000000126
      3        6          -0.000001565    0.000002958    0.000000033
      4        6           0.000001199   -0.000003271    0.000000025
      5        6           0.000000639    0.000001257   -0.000000107
      6        1          -0.000004943    0.000001857    0.000000401
      7        1          -0.000001729    0.000006509   -0.000000079
      8        1           0.000003930    0.000003109   -0.000000491
      9        1          -0.000001138    0.000002948   -0.000000009
     10        1           0.000003396   -0.000004622   -0.000000154
     11        1           0.000002600   -0.000003968   -0.000000094
     12        1           0.000004105    0.000002115   -0.000000472
     13        1          -0.000000855    0.000002460   -0.000000008
     14        1           0.000000587   -0.000002346    0.000000035
     15        1          -0.000004106   -0.000005202    0.000000533
 -------------------------------------------------------------------
 Cartesian Forces:  Max     0.000006509 RMS     0.000002621
 FormGI is forming the generalized inverse of G from B-inverse, IUseBI=4.
 Leave Link  716 at Mon Mar 11 00:09:06 2019, MaxMem=   671088640 cpu:               0.6 elap:               0.1
 (Enter /shared/centos7/gaussian/g16/l103.exe)

 GradGradGradGradGradGradGradGradGradGradGradGradGradGradGradGradGradGrad
 Berny optimization.
 Red2BG is reusing G-inverse.
 Internal  Forces:  Max     0.000000045 RMS     0.000000013
 Search for a local minimum.
 Step number   1 out of a maximum of   79 on scan point     1 out of    37
 All quantities printed in internal units (Hartrees-Bohrs-Radians)
 RMS Force = .13112D-07 SwitMx=.10000D-02 MixMth= 2
 Mixed Optimization -- En-DIIS/RFO-DIIS
 Second derivative matrix not updated -- analytic derivatives used.
 ITU=  0
     Eigenvalues ---    0.00244   0.00319   0.00408   0.03297   0.03665
     Eigenvalues ---    0.03816   0.03989   0.04304   0.04542   0.04604
     Eigenvalues ---    0.05543   0.06933   0.07133   0.08508   0.09955
     Eigenvalues ---    0.11335   0.12058   0.13225   0.14021   0.15704
     Eigenvalues ---    0.16873   0.21829   0.23004   0.24417   0.28775
     Eigenvalues ---    0.30075   0.32282   0.33130   0.33317   0.33452
     Eigenvalues ---    0.33851   0.34029   0.34075   0.34118   0.34971
     Eigenvalues ---    0.35022   0.39633   0.546741000.000001000.00000
     Eigenvalues --- 1000.000001000.000001000.000001000.000001000.00000
     Eigenvalues --- 1000.000001000.000001000.000001000.000001000.00000
     Eigenvalues --- 1000.000001000.000001000.000001000.000001000.00000
     Eigenvalues --- 1000.000001000.000001000.000001000.000001000.00000
     Eigenvalues --- 1000.000001000.000001000.000001000.000001000.00000
     Eigenvalues --- 1000.000001000.000001000.000001000.00000
 RFO step:  Lambda= 0.00000000D+00 EMin= 2.44371383D-03
 Linear search not attempted -- first point.
 Iteration  1 RMS(Cart)=  0.00000319 RMS(Int)=  0.00000000
 Iteration  2 RMS(Cart)=  0.00000000 RMS(Int)=  0.00000000
 Iteration  1 RMS(Cart)=  0.00000000 RMS(Int)=  0.00000000
 ITry= 1 IFail=0 DXMaxC= 1.20D-05 DCOld= 1.00D+10 DXMaxT= 3.00D-01 DXLimC= 3.00D+00 Rises=F
 Variable       Old X    -DE/DX   Delta X   Delta X   Delta X     New X
                                 (Linear)    (Quad)   (Total)
    R1        2.67529  -0.00000   0.00000  -0.00000  -0.00000   2.67529
    R2        1.81282  -0.00000   0.00000  -0.00000  -0.00000   1.81282
    R3        2.88969  -0.00000   0.00000  -0.00000  -0.00000   2.88969
    R4        2.87707  -0.00000   0.00000  -0.00000  -0.00000   2.87707
    R5        2.06719   0.00000   0.00000   0.00000   0.00000   2.06719
    R6        2.06262   0.00000   0.00000   0.00000   0.00000   2.06262
    R7        2.88455   0.00000   0.00000   0.00000   0.00000   2.88455
    R8        2.06582   0.00000   0.00000   0.00000   0.00000   2.06582
    R9        2.06151   0.00000   0.00000   0.00000   0.00000   2.06151
   R10        2.06923  -0.00000   0.00000  -0.00000  -0.00000   2.06923
   R11        2.05808  -0.00000   0.00000  -0.00000  -0.00000   2.05808
   R12        2.06220  -0.00000   0.00000  -0.00000  -0.00000   2.06220
   R13        2.05802   0.00000   0.00000   0.00000   0.00000   2.05802
   R14        2.06214   0.00000   0.00000   0.00000   0.00000   2.06214
    A1        1.90225   0.00000   0.00000   0.00000   0.00000   1.90225
    A2        1.98564  -0.00000   0.00000   0.00000   0.00000   1.98564
    A3        1.90979  -0.00000   0.00000  -0.00000  -0.00000   1.90979
    A4        1.90918   0.00000   0.00000   0.00000   0.00000   1.90918
    A5        1.88682   0.00000   0.00000   0.00000   0.00000   1.88682
    A6        1.89702  -0.00000   0.00000  -0.00000  -0.00000   1.89702
    A7        1.87196  -0.00000   0.00000   0.00000   0.00000   1.87196
    A8        1.98270  -0.00000   0.00000  -0.00000  -0.00000   1.98270
    A9        1.91062   0.00000   0.00000   0.00000   0.00000   1.91062
   A10        1.89634   0.00000   0.00000  -0.00000  -0.00000   1.89634
   A11        1.91763   0.00000   0.00000   0.00000   0.00000   1.91763
   A12        1.90866  -0.00000   0.00000  -0.00000  -0.00000   1.90866
   A13        1.84253  -0.00000   0.00000  -0.00000  -0.00000   1.84253
   A14        1.96937   0.00000   0.00000  -0.00000  -0.00000   1.96937
   A15        1.92848   0.00000   0.00000   0.00000   0.00000   1.92848
   A16        1.84560  -0.00000   0.00000  -0.00000  -0.00000   1.84560
   A17        1.92826  -0.00000   0.00000  -0.00000  -0.00000   1.92826
   A18        1.91755   0.00000   0.00000  -0.00000  -0.00000   1.91755
   A19        1.87028   0.00000   0.00000   0.00000   0.00000   1.87028
   A20        1.93454  -0.00000   0.00000  -0.00000  -0.00000   1.93454
   A21        1.94070   0.00000   0.00000   0.00000   0.00000   1.94070
   A22        1.95421   0.00000   0.00000  -0.00000  -0.00000   1.95421
   A23        1.88374   0.00000   0.00000   0.00000   0.00000   1.88374
   A24        1.87307  -0.00000   0.00000   0.00000   0.00000   1.87307
   A25        1.87429  -0.00000   0.00000   0.00000   0.00000   1.87429
    D1       -1.14011   0.00000   0.00000   0.00000   0.00000  -1.14011
    D2        1.02834   0.00000   0.00000   0.00000   0.00000   1.02834
    D3        3.04653   0.00000   0.00000   0.00000   0.00000   3.04653
    D4        0.99555   0.00000   0.00000   0.00000   0.00000   0.99556
    D5       -1.15510   0.00000   0.00000   0.00000   0.00000  -1.15509
    D6        3.12406   0.00000   0.00000   0.00000   0.00000   3.12407
    D7       -1.11669   0.00000   0.00000   0.00000   0.00000  -1.11668
    D8        3.01585   0.00000   0.00000   0.00000   0.00000   3.01585
    D9        1.01182   0.00000   0.00000   0.00000   0.00000   1.01183
   D10        3.12049   0.00000   0.00000   0.00000   0.00000   3.12049
   D11        0.96984   0.00000   0.00000   0.00000   0.00000   0.96984
   D12       -1.03418   0.00000   0.00000   0.00000   0.00000  -1.03418
   D13        1.01447   0.00000   0.00000   0.00000   0.00000   1.01447
   D14       -1.15411   0.00000   0.00000   0.00000   0.00000  -1.15410
   D15        3.06918   0.00000   0.00000   0.00000   0.00000   3.06918
   D16        3.13950   0.00000   0.00000   0.00000   0.00000   3.13950
   D17        0.97093   0.00000   0.00000   0.00000   0.00000   0.97093
   D18       -1.08898   0.00000   0.00000   0.00000   0.00000  -1.08897
   D19       -1.11720   0.00000   0.00000   0.00000   0.00000  -1.11719
   D20        2.99741   0.00000   0.00000   0.00000   0.00000   2.99742
   D21        0.93751   0.00000   0.00000   0.00000   0.00000   0.93751
   D22        0.95173  -0.00000   0.00000  -0.00000  -0.00000   0.95173
   D23        3.04719  -0.00000   0.00000  -0.00000  -0.00000   3.04719
   D24       -1.13924  -0.00000   0.00000  -0.00000  -0.00000  -1.13924
   D25        3.09854  -0.00000   0.00000  -0.00000  -0.00000   3.09854
   D26       -1.08919  -0.00000   0.00000  -0.00000  -0.00000  -1.08919
   D27        1.00757   0.00000   0.00000  -0.00000  -0.00000   1.00757
   D28       -1.16993   0.00000   0.00000  -0.00000  -0.00000  -1.16993
   D29        0.92553   0.00000   0.00000  -0.00000  -0.00000   0.92553
   D30        3.02229   0.00000   0.00000  -0.00000  -0.00000   3.02229
         Item               Value     Threshold  Converged?
 Maximum Force            0.000000     0.000450     YES
 RMS     Force            0.000000     0.000300     YES
 Maximum Displacement     0.000012     0.001800     YES
 RMS     Displacement     0.000003     0.001200     YES
 Predicted change in Energy=-3.273790D-13
 Optimization completed.
    -- Stationary point found.
                           ----------------------------
                           !   Optimized Parameters   !
                           ! (Angstroms and Degrees)  !
 --------------------------                            --------------------------
 ! Name  Definition              Value          Derivative Info.                !
 --------------------------------------------------------------------------------
 ! R1    R(1,4)                  1.4157         -DE/DX =    0.0                 !
 ! R2    R(1,15)                 0.9593         -DE/DX =    0.0                 !
 ! R3    R(2,3)                  1.5292         -DE/DX =    0.0                 !
 ! R4    R(2,4)                  1.5225         -DE/DX =    0.0                 !
 ! R5    R(2,8)                  1.0939         -DE/DX =    0.0                 !
 ! R6    R(2,9)                  1.0915         -DE/DX =    0.0                 !
 ! R7    R(3,5)                  1.5264         -DE/DX =    0.0                 !
 ! R8    R(3,6)                  1.0932         -DE/DX =    0.0                 !
 ! R9    R(3,7)                  1.0909         -DE/DX =    0.0                 !
 ! R10   R(4,10)                 1.095          -DE/DX =    0.0                 !
 ! R11   R(4,11)                 1.0891         -DE/DX =    0.0                 !
 ! R12   R(5,12)                 1.0913         -DE/DX =    0.0                 !
 ! R13   R(5,13)                 1.0891         -DE/DX =    0.0                 !
 ! R14   R(5,14)                 1.0912         -DE/DX =    0.0                 !
 ! A1    A(4,1,15)             108.991          -DE/DX =    0.0                 !
 ! A2    A(3,2,4)              113.769          -DE/DX =    0.0                 !
 ! A3    A(3,2,8)              109.423          -DE/DX =    0.0                 !
 ! A4    A(3,2,9)              109.3879         -DE/DX =    0.0                 !
 ! A5    A(4,2,8)              108.1066         -DE/DX =    0.0                 !
 ! A6    A(4,2,9)              108.6915         -DE/DX =    0.0                 !
 ! A7    A(8,2,9)              107.2553         -DE/DX =    0.0                 !
 ! A8    A(2,3,5)              113.6003         -DE/DX =    0.0                 !
 ! A9    A(2,3,6)              109.4704         -DE/DX =    0.0                 !
 ! A10   A(2,3,7)              108.6521         -DE/DX =    0.0                 !
 ! A11   A(5,3,6)              109.8719         -DE/DX =    0.0                 !
 ! A12   A(5,3,7)              109.3579         -DE/DX =    0.0                 !
 ! A13   A(6,3,7)              105.5694         -DE/DX =    0.0                 !
 ! A14   A(1,4,2)              112.8365         -DE/DX =    0.0                 !
 ! A15   A(1,4,10)             110.4939         -DE/DX =    0.0                 !
 ! A16   A(1,4,11)             105.7453         -DE/DX =    0.0                 !
 ! A17   A(2,4,10)             110.4812         -DE/DX =    0.0                 !
 ! A18   A(2,4,11)             109.8675         -DE/DX =    0.0                 !
 ! A19   A(10,4,11)            107.1592         -DE/DX =    0.0                 !
 ! A20   A(3,5,12)             110.8411         -DE/DX =    0.0                 !
 ! A21   A(3,5,13)             111.1942         -DE/DX =    0.0                 !
 ! A22   A(3,5,14)             111.9681         -DE/DX =    0.0                 !
 ! A23   A(12,5,13)            107.9303         -DE/DX =    0.0                 !
 ! A24   A(12,5,14)            107.3188         -DE/DX =    0.0                 !
 ! A25   A(13,5,14)            107.3887         -DE/DX =    0.0                 !
 ! D1    D(15,1,4,2)           -65.3238         -DE/DX =    0.0                 !
 ! D2    D(15,1,4,10)           58.9195         -DE/DX =    0.0                 !
 ! D3    D(15,1,4,11)          174.5535         -DE/DX =    0.0                 !
 ! D4    D(4,2,3,5)             57.041          -DE/DX =    0.0                 !
 ! D5    D(4,2,3,6)            -66.1822         -DE/DX =    0.0                 !
 ! D6    D(4,2,3,7)            178.9957         -DE/DX =    0.0                 !
 ! D7    D(8,2,3,5)            -63.9814         -DE/DX =    0.0                 !
 ! D8    D(8,2,3,6)            172.7954         -DE/DX =    0.0                 !
 ! D9    D(8,2,3,7)             57.9733         -DE/DX =    0.0                 !
 ! D10   D(9,2,3,5)            178.791          -DE/DX =    0.0                 !
 ! D11   D(9,2,3,6)             55.5678         -DE/DX =    0.0                 !
 ! D12   D(9,2,3,7)            -59.2544         -DE/DX =    0.0                 !
 ! D13   D(3,2,4,1)             58.1248         -DE/DX =    0.0                 !
 ! D14   D(3,2,4,10)           -66.1255         -DE/DX =    0.0                 !
 ! D15   D(3,2,4,11)           175.8508         -DE/DX =    0.0                 !
 ! D16   D(8,2,4,1)            179.8802         -DE/DX =    0.0                 !
 ! D17   D(8,2,4,10)            55.63           -DE/DX =    0.0                 !
 ! D18   D(8,2,4,11)           -62.3937         -DE/DX =    0.0                 !
 ! D19   D(9,2,4,1)            -64.0106         -DE/DX =    0.0                 !
 ! D20   D(9,2,4,10)           171.7391         -DE/DX =    0.0                 !
 ! D21   D(9,2,4,11)            53.7154         -DE/DX =    0.0                 !
 ! D22   D(2,3,5,12)            54.5299         -DE/DX =    0.0                 !
 ! D23   D(2,3,5,13)           174.5911         -DE/DX =    0.0                 !
 ! D24   D(2,3,5,14)           -65.2737         -DE/DX =    0.0                 !
 ! D25   D(6,3,5,12)           177.533          -DE/DX =    0.0                 !
 ! D26   D(6,3,5,13)           -62.4057         -DE/DX =    0.0                 !
 ! D27   D(6,3,5,14)            57.7294         -DE/DX =    0.0                 !
 ! D28   D(7,3,5,12)           -67.032          -DE/DX =    0.0                 !
 ! D29   D(7,3,5,13)            53.0292         -DE/DX =    0.0                 !
 ! D30   D(7,3,5,14)           173.1644         -DE/DX =    0.0                 !
 --------------------------------------------------------------------------------
 Lowest energy point so far.  Saving SCF results.
 Iteration  1 RMS(Cart)=  0.01332853 RMS(Int)=  0.01427510
 Iteration  2 RMS(Cart)=  0.00087135 RMS(Int)=  0.01426558
 Iteration  3 RMS(Cart)=  0.00005247 RMS(Int)=  0.01426556
 Iteration  4 RMS(Cart)=  0.00000279 RMS(Int)=  0.01426556
 Iteration  5 RMS(Cart)=  0.00000016 RMS(Int)=  0.01426556
 Iteration  1 RMS(Cart)=  0.00616393 RMS(Int)=  0.00666709
 Iteration  2 RMS(Cart)=  0.00288214 RMS(Int)=  0.00746076
 Iteration  3 RMS(Cart)=  0.00135932 RMS(Int)=  0.00827987
 Iteration  4 RMS(Cart)=  0.00064348 RMS(Int)=  0.00873784
 Iteration  5 RMS(Cart)=  0.00030512 RMS(Int)=  0.00896793
 Iteration  6 RMS(Cart)=  0.00014479 RMS(Int)=  0.00907976
 Iteration  7 RMS(Cart)=  0.00006873 RMS(Int)=  0.00913342
 Iteration  8 RMS(Cart)=  0.00003263 RMS(Int)=  0.00915902
 Iteration  9 RMS(Cart)=  0.00001550 RMS(Int)=  0.00917121
 Iteration 10 RMS(Cart)=  0.00000736 RMS(Int)=  0.00917700
 Iteration 11 RMS(Cart)=  0.00000349 RMS(Int)=  0.00917975
 Iteration 12 RMS(Cart)=  0.00000166 RMS(Int)=  0.00918106
 Iteration 13 RMS(Cart)=  0.00000079 RMS(Int)=  0.00918168
 GradGradGradGradGradGradGradGradGradGradGradGradGradGradGradGradGradGrad

 Leave Link  103 at Mon Mar 11 00:09:06 2019, MaxMem=   671088640 cpu:               0.9 elap:               0.1
 (Enter /shared/centos7/gaussian/g16/l202.exe)
                          Input orientation:                          
 ---------------------------------------------------------------------
 Center     Atomic      Atomic             Coordinates (Angstroms)
 Number     Number       Type             X           Y           Z
 ---------------------------------------------------------------------
      1          8           0        2.408563   -1.248367    0.166965
      2          6           0        0.213709   -0.172209    0.506885
      3          6           0       -0.059809   -0.816175    1.866601
      4          6           0        1.694324   -0.026098    0.183816
      5          6           0        0.584747   -0.074572    3.034755
      6          1           0        0.280368   -1.854992    1.852830
      7          1           0       -1.138907   -0.863439    2.019517
      8          1           0       -0.240441    0.822539    0.477546
      9          1           0       -0.258378   -0.766910   -0.277218
     10          1           0        2.234671    0.686703    0.815853
     11          1           0        1.829218    0.372258   -0.820796
     12          1           0        0.289696    0.976051    3.037899
     13          1           0        0.288412   -0.508895    3.988480
     14          1           0        1.674480   -0.105812    2.986730
     15          1           0        2.353246   -1.654118    1.034744
 ---------------------------------------------------------------------
                    Distance matrix (angstroms):
                    1          2          3          4          5
     1  O    0.000000
     2  C    2.468004   0.000000
     3  C    3.027939   1.529160   0.000000
     4  C    1.415755   1.522479   2.555967   0.000000
     5  C    3.595598   2.556820   1.526438   3.059635   0.000000
     6  H    2.781969   2.155870   1.093184   2.851269   2.158585
     7  H    4.020530   2.143694   1.090904   3.478238   2.150350
     8  H    3.376735   1.093909   2.155802   2.133021   2.832854
     9  H    2.746211   1.091491   2.153558   2.138785   3.487027
    10  H    2.048363   2.217539   2.937236   1.095231   2.867982
    11  H    1.984373   2.160799   3.493265   1.089096   4.075984
    12  H    4.204748   2.780343   2.169370   3.335127   1.091272
    13  H    4.432362   3.498634   2.172107   4.084745   1.089055
    14  H    3.129758   2.878869   2.183360   2.804117   1.091238
    15  H    0.959549   2.655618   2.686441   1.951590   3.102032
                    6          7          8          9         10
     6  H    0.000000
     7  H    1.739340   0.000000
     8  H    3.054803   2.455084   0.000000
     9  H    2.451790   2.461633   1.759642   0.000000
    10  H    3.369695   3.902920   2.501816   3.085951   0.000000
    11  H    3.808919   4.289999   2.484338   2.439517   1.715193
    12  H    3.069085   2.541994   2.619164   3.785274   2.967178
    13  H    2.524488   2.457591   3.791973   4.308332   3.909341
    14  H    2.507770   3.069958   3.290100   3.850499   2.377941
    15  H    2.237508   3.713500   3.629258   3.054335   2.354022
                   11         12         13         14         15
    11  H    0.000000
    12  H    4.198122   0.000000
    13  H    5.126368   1.763142   0.000000
    14  H    3.840540   1.758031   1.757033   0.000000
    15  H    2.797112   3.897263   3.781485   2.582290   0.000000
 Stoichiometry    C4H10O
 Framework group  C1[X(C4H10O)]
 Deg. of freedom    39
 Full point group                 C1      NOp   1
 RotChk:  IX=0 Diff= 2.64D-02
 Largest Abelian subgroup         C1      NOp   1
 Largest concise Abelian subgroup C1      NOp   1
                         Standard orientation:                         
 ---------------------------------------------------------------------
 Center     Atomic      Atomic             Coordinates (Angstroms)
 Number     Number       Type             X           Y           Z
 ---------------------------------------------------------------------
      1          8           0        1.743259   -0.704425   -0.412265
      2          6           0        0.081460    1.063642    0.038746
      3          6           0       -1.098721    0.324578   -0.593147
      4          6           0        1.170699    0.141126    0.568337
      5          6           0       -1.770838   -0.671449    0.348236
      6          1           0       -0.764858   -0.187700   -1.499325
      7          1           0       -1.832902    1.059625   -0.925945
      8          1           0       -0.277008    1.678398    0.869536
      9          1           0        0.522086    1.738793   -0.697034
     10          1           0        0.877860   -0.469154    1.429344
     11          1           0        2.013895    0.720074    0.942466
     12          1           0       -2.071780   -0.185015    1.277585
     13          1           0       -2.660418   -1.104621   -0.106792
     14          1           0       -1.106019   -1.495214    0.613239
     15          1           0        1.057471   -1.267162   -0.777994
 ---------------------------------------------------------------------
 Rotational constants (GHZ):           7.9606443           3.1124269           2.7858792
 Leave Link  202 at Mon Mar 11 00:09:07 2019, MaxMem=   671088640 cpu:               0.2 elap:               0.0
 (Enter /shared/centos7/gaussian/g16/l301.exe)
 Standard basis: 6-311+G(2df,2p) (5D, 7F)
 Ernie: Thresh=  0.10000D-02 Tol=  0.10000D-05 Strict=F.
 There are   285 symmetry adapted cartesian basis functions of A   symmetry.
 There are   260 symmetry adapted basis functions of A   symmetry.
   260 basis functions,   370 primitive gaussians,   285 cartesian basis functions
    21 alpha electrons       21 beta electrons
       nuclear repulsion energy       192.4078858158 Hartrees.
 IExCor= 4336 DFT=T Ex+Corr=M062X ExCW=0 ScaHFX=  0.540000
 ScaDFX=  1.000000  1.000000  1.000000  1.000000 ScalE2=  1.000000  1.000000
 IRadAn=      5 IRanWt=     -1 IRanGd=            0 ICorTp=0 IEmpDi=  4
 NAtoms=   15 NActive=   15 NUniq=   15 SFac= 1.00D+00 NAtFMM=   60 NAOKFM=F Big=F
 Integral buffers will be    131072 words long.
 Raffenetti 2 integral format.
 Two-electron integral symmetry is turned on.
 Leave Link  301 at Mon Mar 11 00:09:07 2019, MaxMem=   671088640 cpu:               0.9 elap:               0.1
 (Enter /shared/centos7/gaussian/g16/l302.exe)
 NPDir=0 NMtPBC=     1 NCelOv=     1 NCel=       1 NClECP=     1 NCelD=      1
         NCelK=      1 NCelE2=     1 NClLst=     1 CellRange=     0.0.
 One-electron integrals computed using PRISM.
 One-electron integral symmetry used in STVInt
 NBasis=   260 RedAO= T EigKep=  4.06D-05  NBF=   260
 NBsUse=   260 1.00D-06 EigRej= -1.00D+00 NBFU=   260
 Precomputing XC quadrature grid using
 IXCGrd= 4 IRadAn=           5 IRanWt=          -1 IRanGd=           0 AccXCQ= 0.00D+00.
 Generated NRdTot=       0 NPtTot=           0 NUsed=           0 NTot=          32
 NSgBfM=   285   285   285   285   285 MxSgAt=    15 MxSgA2=    15.
 Leave Link  302 at Mon Mar 11 00:09:07 2019, MaxMem=   671088640 cpu:               6.4 elap:               0.3
 (Enter /shared/centos7/gaussian/g16/l303.exe)
 DipDrv:  MaxL=1.
 Leave Link  303 at Mon Mar 11 00:09:07 2019, MaxMem=   671088640 cpu:               0.6 elap:               0.1
 (Enter /shared/centos7/gaussian/g16/l401.exe)
 Initial guess from the checkpoint file:  "/scratch/underkoffler.c/gaussian_scratch/Gau-8516.chk"
 B after Tr=    -0.000000    0.000000   -0.000000
         Rot=    0.999975   -0.005949   -0.000247   -0.003852 Ang=  -0.81 deg.
 Guess basis will be translated and rotated to current coordinates.
 JPrj=2 DoOrth=T DoCkMO=T.
 Generating alternative initial guess.
 ExpMin= 4.38D-02 ExpMax= 8.59D+03 ExpMxC= 1.30D+03 IAcc=2 IRadAn=         4 AccDes= 0.00D+00
 Harris functional with IExCor= 1009 and IRadAn=       4 diagonalized for initial guess.
 HarFok:  IExCor= 1009 AccDes= 0.00D+00 IRadAn=         4 IDoV= 1 UseB2=F ITyADJ=14
 ICtDFT=  3500011 ScaDFX=  1.000000  1.000000  1.000000  1.000000
 FoFCou: FMM=F IPFlag=           0 FMFlag=      100000 FMFlg1=           0
         NFxFlg=           0 DoJE=T BraDBF=F KetDBF=T FulRan=T
         wScrn=  0.000000 ICntrl=       500 IOpCl=  0 I1Cent=   200000004 NGrid=           0
         NMat0=    1 NMatS0=      1 NMatT0=    0 NMatD0=    1 NMtDS0=    0 NMtDT0=    0
 Petite list used in FoFCou.
 Harris En= -233.597808550522    
 Leave Link  401 at Mon Mar 11 00:09:08 2019, MaxMem=   671088640 cpu:              12.8 elap:               0.7
 (Enter /shared/centos7/gaussian/g16/l502.exe)
 Integral symmetry usage will be decided dynamically.
 Closed shell SCF:
 Using DIIS extrapolation, IDIIS=  1040.
 NGot=   671088640 LenX=   670917793 LenY=   670836127
 Requested convergence on RMS density matrix=1.00D-08 within 128 cycles.
 Requested convergence on MAX density matrix=1.00D-06.
 Requested convergence on             energy=1.00D-06.
 No special actions if energy rises.
 Fock matrices will be formed incrementally for  20 cycles.

 Cycle   1  Pass 1  IDiag  1:
 FoFJK:  IHMeth= 1 ICntrl=       0 DoSepK=F KAlg= 0 I1Cent=           0 FoldK=F
 IRaf= 990000000 NMat=       1 IRICut=       1 DoRegI=T DoRafI=F ISym2E= 0 IDoP0=0 IntGTp=1.
 FoFCou: FMM=F IPFlag=           0 FMFlag=      100000 FMFlg1=           0
         NFxFlg=           0 DoJE=F BraDBF=F KetDBF=F FulRan=T
         wScrn=  0.000000 ICntrl=         0 IOpCl=  0 I1Cent=           0 NGrid=           0
         NMat0=    1 NMatS0=      1 NMatT0=    0 NMatD0=    1 NMtDS0=    0 NMtDT0=    0
 Symmetry not used in FoFCou.
 E= -233.630143686795    
 DIIS: error= 1.29D-03 at cycle   1 NSaved=   1.
 NSaved= 1 IEnMin= 1 EnMin= -233.630143686795     IErMin= 1 ErrMin= 1.29D-03
 ErrMax= 1.29D-03  0.00D+00 EMaxC= 1.00D-01 BMatC= 1.28D-03 BMatP= 1.28D-03
 IDIUse=3 WtCom= 9.87D-01 WtEn= 1.29D-02
 Coeff-Com:  0.100D+01
 Coeff-En:   0.100D+01
 Coeff:      0.100D+01
 Gap=     0.612 Goal=   None    Shift=    0.000
 GapD=    0.612 DampG=2.000 DampE=1.000 DampFc=2.0000 IDamp=-1.
 RMSDP=3.42D-04 MaxDP=2.84D-02              OVMax= 1.24D-02

 Cycle   2  Pass 1  IDiag  1:
 RMSU=  3.40D-04    CP:  1.00D+00
 E= -233.631473161316     Delta-E=       -0.001329474521 Rises=F Damp=F
 DIIS: error= 2.36D-04 at cycle   2 NSaved=   2.
 NSaved= 2 IEnMin= 2 EnMin= -233.631473161316     IErMin= 2 ErrMin= 2.36D-04
 ErrMax= 2.36D-04  0.00D+00 EMaxC= 1.00D-01 BMatC= 3.25D-05 BMatP= 1.28D-03
 IDIUse=3 WtCom= 9.98D-01 WtEn= 2.36D-03
 Coeff-Com: -0.109D+00 0.111D+01
 Coeff-En:   0.000D+00 0.100D+01
 Coeff:     -0.109D+00 0.111D+01
 Gap=     0.357 Goal=   None    Shift=    0.000
 RMSDP=5.09D-05 MaxDP=3.46D-03 DE=-1.33D-03 OVMax= 3.69D-03

 Cycle   3  Pass 1  IDiag  1:
 RMSU=  3.07D-05    CP:  1.01D+00  1.12D+00
 E= -233.631524568475     Delta-E=       -0.000051407159 Rises=F Damp=F
 DIIS: error= 1.37D-04 at cycle   3 NSaved=   3.
 NSaved= 3 IEnMin= 3 EnMin= -233.631524568475     IErMin= 3 ErrMin= 1.37D-04
 ErrMax= 1.37D-04  0.00D+00 EMaxC= 1.00D-01 BMatC= 6.51D-06 BMatP= 3.25D-05
 IDIUse=3 WtCom= 9.99D-01 WtEn= 1.37D-03
 Coeff-Com: -0.473D-01 0.343D+00 0.705D+00
 Coeff-En:   0.000D+00 0.000D+00 0.100D+01
 Coeff:     -0.472D-01 0.342D+00 0.705D+00
 Gap=     0.356 Goal=   None    Shift=    0.000
 RMSDP=1.55D-05 MaxDP=1.25D-03 DE=-5.14D-05 OVMax= 9.18D-04

 Cycle   4  Pass 1  IDiag  1:
 RMSU=  1.08D-05    CP:  1.01D+00  1.15D+00  1.02D+00
 E= -233.631529057815     Delta-E=       -0.000004489340 Rises=F Damp=F
 DIIS: error= 6.00D-05 at cycle   4 NSaved=   4.
 NSaved= 4 IEnMin= 4 EnMin= -233.631529057815     IErMin= 4 ErrMin= 6.00D-05
 ErrMax= 6.00D-05  0.00D+00 EMaxC= 1.00D-01 BMatC= 1.65D-06 BMatP= 6.51D-06
 IDIUse=1 WtCom= 1.00D+00 WtEn= 0.00D+00
 Coeff-Com: -0.172D-02-0.450D-01 0.315D+00 0.732D+00
 Coeff:     -0.172D-02-0.450D-01 0.315D+00 0.732D+00
 Gap=     0.357 Goal=   None    Shift=    0.000
 RMSDP=6.08D-06 MaxDP=2.21D-04 DE=-4.49D-06 OVMax= 5.13D-04

 Cycle   5  Pass 1  IDiag  1:
[...]
           D17         56.10354  55.64910
           D18        -62.05408 -62.37599
           D19        -63.81588 -63.99591
           D20        172.20260 171.75705
           D21         54.04498  53.73195
           D22         54.45532  54.54957
           D23        174.54080 174.60908
           D24        -65.38993 -65.25420
           D25        177.16685 177.55422
           D26        -62.74768 -62.38626
           D27         57.32160  57.75046
           D28        -67.13939 -67.01241
           D29         52.94608  53.04711
           D30        173.01536 173.18383
 Largest change from initial coordinates is atom   12       0.001 Angstoms.
 GradGradGradGradGradGradGradGradGradGradGradGradGradGradGradGradGradGrad

 Leave Link  103 at Mon Mar 11 01:07:11 2019, MaxMem=   671088640 cpu:               0.7 elap:               0.1
 (Enter /shared/centos7/gaussian/g16/l202.exe)
                          Input orientation:                          
 ---------------------------------------------------------------------
 Center     Atomic      Atomic             Coordinates (Angstroms)
 Number     Number       Type             X           Y           Z
 ---------------------------------------------------------------------
      1          8           0        2.312316   -1.307101    0.124336
      2          6           0        0.164439   -0.204221    0.530817
      3          6           0       -0.023284   -0.800212    1.926485
      4          6           0        1.621910   -0.071227    0.111277
      5          6           0        0.691506   -0.018880    3.025852
      6          1           0        0.316757   -1.839167    1.927782
      7          1           0       -1.090743   -0.841259    2.147650
      8          1           0       -0.291606    0.789455    0.495254
      9          1           0       -0.354973   -0.825228   -0.201242
     10          1           0        2.136469    0.662028    0.741015
     11          1           0        1.680285    0.289147   -0.914801
     12          1           0        0.395501    1.031369    3.010923
     13          1           0        0.455768   -0.419687    4.010648
     14          1           0        1.776189   -0.052336    2.911228
     15          1           0        2.363363   -1.626715    1.027383
 ---------------------------------------------------------------------
                    Distance matrix (angstroms):
                    1          2          3          4          5
     1  O    0.000000
     2  C    2.448458   0.000000
     3  C    2.993276   1.529161   0.000000
     4  C    1.415703   1.522472   2.555985   0.000000
     5  C    3.564454   2.556824   1.526437   3.059924   0.000000
     6  H    2.741854   2.155867   1.093187   2.851092   2.158619
     7  H    3.986429   2.143700   1.090902   3.478253   2.150338
     8  H    3.363559   1.093907   2.155797   2.133015   2.832638
     9  H    2.729950   1.091489   2.153570   2.138749   3.487040
    10  H    2.070914   2.164134   2.864964   1.094991   2.787837
    11  H    2.006807   2.151979   3.487371   1.089089   4.074470
    12  H    4.180311   2.780467   2.169349   3.335827   1.091268
    13  H    4.397464   3.498646   2.172101   4.084899   1.089056
    14  H    3.103004   2.878744   2.183378   2.804261   1.091236
    15  H    0.959298   2.665583   2.680965   1.951549   3.061718
                    6          7          8          9         10
     6  H    0.000000
     7  H    1.739316   0.000000
     8  H    3.054815   2.455252   0.000000
     9  H    2.451945   2.461485   1.759637   0.000000
    10  H    3.312967   3.827975   2.443805   3.050748   0.000000
    11  H    3.803841   4.281941   2.475261   2.427606   1.757518
    12  H    3.069100   2.541829   2.619013   3.785256   2.884418
    13  H    2.524397   2.457677   3.791911   4.308338   3.832149
    14  H    2.507962   3.069975   3.289577   3.850543   2.312994
    15  H    2.245985   3.715210   3.629035   3.088891   2.317722
                   11         12         13         14         15
    11  H    0.000000
    12  H    4.196769   0.000000
    13  H    5.124640   1.763136   0.000000
    14  H    3.842435   1.758027   1.757039   0.000000
    15  H    2.812330   3.856466   3.741084   2.524345   0.000000
 Stoichiometry    C4H10O
 Framework group  C1[X(C4H10O)]
 Deg. of freedom    39
 Full point group                 C1      NOp   1
 RotChk:  IX=0 Diff= 1.01D-15
 Largest Abelian subgroup         C1      NOp   1
 Largest concise Abelian subgroup C1      NOp   1
                         Standard orientation:                         
 ---------------------------------------------------------------------
 Center     Atomic      Atomic             Coordinates (Angstroms)
 Number     Number       Type             X           Y           Z
 ---------------------------------------------------------------------
      1          8           0        1.714754   -0.718537   -0.414375
      2          6           0        0.096239    1.064109    0.030066
      3          6           0       -1.085306    0.323502   -0.597457
      4          6           0        1.179408    0.142572    0.573607
      5          6           0       -1.765603   -0.658282    0.352969
      6          1           0       -0.750763   -0.200806   -1.496478
      7          1           0       -1.814716    1.058186   -0.941357
      8          1           0       -0.262087    1.689812    0.852703
      9          1           0        0.542470    1.728901   -0.711740
     10          1           0        0.799620   -0.436465    1.421830
     11          1           0        2.019123    0.732851    0.937700
     12          1           0       -2.067738   -0.159562    1.275389
     13          1           0       -2.655502   -1.092611   -0.100330
     14          1           0       -1.105667   -1.481963    0.630151
     15          1           0        1.028802   -1.321461   -0.707980
 ---------------------------------------------------------------------
 Rotational constants (GHZ):           7.9281077           3.1527524           2.8167143
 Leave Link  202 at Mon Mar 11 01:07:11 2019, MaxMem=   671088640 cpu:               0.1 elap:               0.0
 (Enter /shared/centos7/gaussian/g16/l601.exe)
 Copying SCF densities to generalized density rwf, IOpCl= 0 IROHF=0.

 **********************************************************************

            Population analysis using the SCF density.

 **********************************************************************

 Orbital symmetries:
       Occupied  (A) (A) (A) (A) (A) (A) (A) (A) (A) (A) (A) (A)
                 (A) (A) (A) (A) (A) (A) (A) (A) (A)
       Virtual   (A) (A) (A) (A) (A) (A) (A) (A) (A) (A) (A) (A)
                 (A) (A) (A) (A) (A) (A) (A) (A) (A) (A) (A) (A)
                 (A) (A) (A) (A) (A) (A) (A) (A) (A) (A) (A) (A)
                 (A) (A) (A) (A) (A) (A) (A) (A) (A) (A) (A) (A)
                 (A) (A) (A) (A) (A) (A) (A) (A) (A) (A) (A) (A)
                 (A) (A) (A) (A) (A) (A) (A) (A) (A) (A) (A) (A)
                 (A) (A) (A) (A) (A) (A) (A) (A) (A) (A) (A) (A)
                 (A) (A) (A) (A) (A) (A) (A) (A) (A) (A) (A) (A)
                 (A) (A) (A) (A) (A) (A) (A) (A) (A) (A) (A) (A)
                 (A) (A) (A) (A) (A) (A) (A) (A) (A) (A) (A) (A)
                 (A) (A) (A) (A) (A) (A) (A) (A) (A) (A) (A) (A)
                 (A) (A) (A) (A) (A) (A) (A) (A) (A) (A) (A) (A)
                 (A) (A) (A) (A) (A) (A) (A) (A) (A) (A) (A) (A)
                 (A) (A) (A) (A) (A) (A) (A) (A) (A) (A) (A) (A)
                 (A) (A) (A) (A) (A) (A) (A) (A) (A) (A) (A) (A)
                 (A) (A) (A) (A) (A) (A) (A) (A) (A) (A) (A) (A)
                 (A) (A) (A) (A) (A) (A) (A) (A) (A) (A) (A) (A)
                 (A) (A) (A) (A) (A) (A) (A) (A) (A) (A) (A) (A)
                 (A) (A) (A) (A) (A) (A) (A) (A) (A) (A) (A) (A)
                 (A) (A) (A) (A) (A) (A) (A) (A) (A) (A) (A)
 The electronic state is 1-A.
 Alpha  occ. eigenvalues --  -19.61857 -10.57706 -10.53581 -10.53011 -10.52932
 Alpha  occ. eigenvalues --   -1.14304  -0.89847  -0.81579  -0.73756  -0.65801
 Alpha  occ. eigenvalues --   -0.58748  -0.54820  -0.52569  -0.48603  -0.48249
 Alpha  occ. eigenvalues --   -0.46083  -0.41749  -0.40990  -0.39745  -0.38175
 Alpha  occ. eigenvalues --   -0.34509
 Alpha virt. eigenvalues --    0.01012   0.02654   0.02935   0.03661   0.05841
 Alpha virt. eigenvalues --    0.06182   0.06705   0.07014   0.07562   0.10378
 Alpha virt. eigenvalues --    0.10574   0.11489   0.11658   0.12371   0.14625
 Alpha virt. eigenvalues --    0.16328   0.17902   0.18842   0.20458   0.21949
 Alpha virt. eigenvalues --    0.22549   0.23171   0.24638   0.25259   0.26193
 Alpha virt. eigenvalues --    0.26613   0.27259   0.27647   0.29763   0.29943
 Alpha virt. eigenvalues --    0.30147   0.31613   0.32535   0.37962   0.41320
 Alpha virt. eigenvalues --    0.41456   0.45265   0.46238   0.47227   0.48911
 Alpha virt. eigenvalues --    0.51984   0.52983   0.54076   0.55830   0.57556
 Alpha virt. eigenvalues --    0.57874   0.58520   0.59023   0.61187   0.62100
 Alpha virt. eigenvalues --    0.62314   0.62857   0.64654   0.65496   0.67120
 Alpha virt. eigenvalues --    0.69204   0.69414   0.71123   0.72041   0.75037
 Alpha virt. eigenvalues --    0.79275   0.82680   0.83264   0.86146   0.88876
 Alpha virt. eigenvalues --    0.89682   0.96138   0.97598   1.00130   1.01682
 Alpha virt. eigenvalues --    1.05232   1.06350   1.07357   1.08687   1.10778
 Alpha virt. eigenvalues --    1.13572   1.14625   1.15835   1.17583   1.18822
 Alpha virt. eigenvalues --    1.19391   1.20393   1.21597   1.24326   1.27082
 Alpha virt. eigenvalues --    1.28561   1.29581   1.29928   1.33208   1.34396
 Alpha virt. eigenvalues --    1.35834   1.36994   1.38441   1.39794   1.42423
 Alpha virt. eigenvalues --    1.43459   1.44219   1.47263   1.47610   1.48917
 Alpha virt. eigenvalues --    1.51308   1.52315   1.54620   1.55335   1.56310
 Alpha virt. eigenvalues --    1.56742   1.61056   1.63585   1.64205   1.67079
 Alpha virt. eigenvalues --    1.70560   1.73764   1.74718   1.78188   1.97319
 Alpha virt. eigenvalues --    2.10173   2.15370   2.29284   2.31301   2.39472
 Alpha virt. eigenvalues --    2.46023   2.48984   2.54672   2.55968   2.58555
 Alpha virt. eigenvalues --    2.63771   2.67136   2.73930   2.76441   2.80924
 Alpha virt. eigenvalues --    2.82807   2.85151   2.86054   2.89227   2.92854
 Alpha virt. eigenvalues --    2.93480   2.99098   2.99689   3.01362   3.06107
 Alpha virt. eigenvalues --    3.08425   3.10721   3.15375   3.17535   3.19341
 Alpha virt. eigenvalues --    3.21066   3.23239   3.27040   3.27701   3.32462
 Alpha virt. eigenvalues --    3.32626   3.35106   3.37207   3.39364   3.43063
 Alpha virt. eigenvalues --    3.45079   3.49404   3.51139   3.52319   3.54762
 Alpha virt. eigenvalues --    3.59638   3.61736   3.64574   3.65828   3.67613
 Alpha virt. eigenvalues --    3.67997   3.72159   3.74297   3.77973   3.79176
 Alpha virt. eigenvalues --    3.80615   3.84162   3.85950   3.89045   3.92763
 Alpha virt. eigenvalues --    3.96079   3.97585   3.97875   4.00571   4.01355
 Alpha virt. eigenvalues --    4.04382   4.07548   4.12971   4.14087   4.16648
 Alpha virt. eigenvalues --    4.18849   4.19652   4.21812   4.23129   4.25788
 Alpha virt. eigenvalues --    4.26836   4.27696   4.32264   4.34521   4.36584
 Alpha virt. eigenvalues --    4.38018   4.42990   4.43227   4.51148   4.54009
 Alpha virt. eigenvalues --    4.55578   4.56703   4.58200   4.58714   4.62847
 Alpha virt. eigenvalues --    4.64076   4.66540   4.71577   4.76348   4.99364
 Alpha virt. eigenvalues --    5.19945   5.24495   5.25432   5.28022   5.38018
 Alpha virt. eigenvalues --    5.41286   5.43411   5.47470   5.52947   5.58386
 Alpha virt. eigenvalues --    5.60160   5.60897   5.66796   5.68381   5.72050
 Alpha virt. eigenvalues --    5.85842   5.96761   6.51678   6.99866   7.19597
 Alpha virt. eigenvalues --    7.23150   7.24179   7.52328   7.63886  24.31200
 Alpha virt. eigenvalues --   24.34887  24.44580  24.49236  50.15026
          Condensed to atoms (all electrons):
               1          2          3          4          5          6
     1  O    8.074367   0.009734  -0.023884   0.142391  -0.015340   0.003746
     2  C    0.009734   5.470480   0.002100   0.225506  -0.056414  -0.018712
     3  C   -0.023884   0.002100   5.517492  -0.062846   0.078920   0.469230
     4  C    0.142391   0.225506  -0.062846   5.066568   0.062690  -0.027814
     5  C   -0.015340  -0.056414   0.078920   0.062690   5.248935  -0.066601
     6  H    0.003746  -0.018712   0.469230  -0.027814  -0.066601   0.496724
     7  H   -0.000967  -0.051415   0.438921   0.017470  -0.026484  -0.026059
     8  H    0.006728   0.445394  -0.009919  -0.062121  -0.017440   0.004343
     9  H   -0.008274   0.441382  -0.050323  -0.033375   0.014478  -0.005592
    10  H   -0.040267   0.002378  -0.029102   0.413601  -0.000733   0.000813
    11  H   -0.054711  -0.060421   0.020681   0.456742  -0.000471  -0.000382
    12  H    0.000693  -0.002997  -0.030632  -0.010469   0.422150   0.005457
    13  H    0.000034   0.025405  -0.061112  -0.001014   0.429520  -0.002297
    14  H   -0.002474  -0.034698   0.000777   0.016814   0.390392  -0.008972
    15  H    0.245316  -0.039026   0.063052  -0.007015  -0.026383  -0.005422
               7          8          9         10         11         12
     1  O   -0.000967   0.006728  -0.008274  -0.040267  -0.054711   0.000693
     2  C   -0.051415   0.445394   0.441382   0.002378  -0.060421  -0.002997
     3  C    0.438921  -0.009919  -0.050323  -0.029102   0.020681  -0.030632
     4  C    0.017470  -0.062121  -0.033375   0.413601   0.456742  -0.010469
     5  C   -0.026484  -0.017440   0.014478  -0.000733  -0.000471   0.422150
     6  H   -0.026059   0.004343  -0.005592   0.000813  -0.000382   0.005457
     7  H    0.511692  -0.007227  -0.004517  -0.000439  -0.000111  -0.005935
     8  H   -0.007227   0.502261  -0.023493  -0.004467  -0.002217   0.000073
     9  H   -0.004517  -0.023493   0.495896   0.004919  -0.007528   0.000201
    10  H   -0.000439  -0.004467   0.004919   0.551865  -0.030776  -0.000734
    11  H   -0.000111  -0.002217  -0.007528  -0.030776   0.522949  -0.000073
    12  H   -0.005935   0.000073   0.000201  -0.000734  -0.000073   0.530864
    13  H   -0.006280  -0.000114  -0.000180   0.000466   0.000013  -0.022508
    14  H    0.006072   0.000260  -0.000394  -0.009073   0.000511  -0.036774
    15  H    0.000081  -0.000185  -0.000393  -0.010219   0.008768  -0.000017
              13         14         15
     1  O    0.000034  -0.002474   0.245316
     2  C    0.025405  -0.034698  -0.039026
     3  C   -0.061112   0.000777   0.063052
     4  C   -0.001014   0.016814  -0.007015
     5  C    0.429520   0.390392  -0.026383
     6  H   -0.002297  -0.008972  -0.005422
     7  H   -0.006280   0.006072   0.000081
     8  H   -0.000114   0.000260  -0.000185
     9  H   -0.000180  -0.000394  -0.000393
    10  H    0.000466  -0.009073  -0.010219
    11  H    0.000013   0.000511   0.008768
    12  H   -0.022508  -0.036774  -0.000017
    13  H    0.519670  -0.025066  -0.000038
    14  H   -0.025066   0.565734   0.004585
    15  H   -0.000038   0.004585   0.520761
 Mulliken charges:
               1
     1  O   -0.337093
     2  C   -0.358696
     3  C   -0.323353
     4  C   -0.197127
     5  C   -0.437221
     6  H    0.181539
     7  H    0.155199
     8  H    0.168123
     9  H    0.177191
    10  H    0.151767
    11  H    0.147026
    12  H    0.150701
    13  H    0.143501
    14  H    0.132307
    15  H    0.246137
 Sum of Mulliken charges =  -0.00000
 Mulliken charges with hydrogens summed into heavy atoms:
               1
     1  O   -0.090956
     2  C   -0.013383
     3  C    0.013385
     4  C    0.101666
     5  C   -0.010712
 Electronic spatial extent (au):  <R**2>=            517.8351
 Charge=              0.0000 electrons
 Dipole moment (field-independent basis, Debye):
    X=             -1.7931    Y=              0.1933    Z=              0.4872  Tot=              1.8681
 Quadrupole moment (field-independent basis, Debye-Ang):
   XX=            -38.0662   YY=            -32.1643   ZZ=            -33.3384
   XY=              1.7624   XZ=              1.8388   YZ=              0.9234
 Traceless Quadrupole moment (field-independent basis, Debye-Ang):
   XX=             -3.5432   YY=              2.3587   ZZ=              1.1845
   XY=              1.7624   XZ=              1.8388   YZ=              0.9234
 Octapole moment (field-independent basis, Debye-Ang**2):
  XXX=             -4.6120  YYY=             -5.1689  ZZZ=             -1.4168  XYY=              2.3267
  XXY=              5.4482  XXZ=              3.1209  XZZ=              1.8276  YZZ=             -1.3909
  YYZ=             -2.5468  XYZ=             -0.0964
 Hexadecapole moment (field-independent basis, Debye-Ang**3):
 XXXX=           -432.8885 YYYY=           -160.5002 ZZZZ=           -112.5034 XXXY=             10.0862
 XXXZ=             10.0438 YYYX=             -6.6494 YYYZ=              4.4721 ZZZX=             -2.7215
 ZZZY=              3.6051 XXYY=            -98.5837 XXZZ=            -89.4462 YYZZ=            -42.8809
 XXYZ=              1.5808 YYXZ=             -1.6324 ZZXY=             -2.8677
 N-N= 1.928171165207D+02 E-N=-9.299400464006D+02  KE= 2.327006255532D+02
 No NMR shielding tensors so no spin-rotation constants.
 Leave Link  601 at Mon Mar 11 01:07:12 2019, MaxMem=   671088640 cpu:               3.9 elap:               0.2
 (Enter /shared/centos7/gaussian/g16/l9999.exe)
 1\1\GINC-C0278\Scan\RM062X\6-311+G(2df,2p)\C4H10O1\UNDERKOFFLER.C\11-M
 ar-2019\0\\#p m062x/6-311+g(2df,2p) Opt=(CalcFC,ModRedun)\\Gaussian In
 put Prepared from Scan Object\\0,1\O,2.3123156533,-1.3071006732,0.1243
 360739\C,0.1644389803,-0.2042208957,0.5308168434\C,-0.0232837196,-0.80
 02117895,1.9264849924\C,1.6219096305,-0.071227303,0.111277376\C,0.6915
 059335,-0.0188804046,3.0258517512\H,0.3167570224,-1.8391671268,1.92778
 18477\H,-1.0907427022,-0.8412587291,2.1476504592\H,-0.2916055923,0.789
 4546744,0.495253856\H,-0.3549725033,-0.825227712,-0.2012419969\H,2.136
 4692683,0.6620283201,0.7410147256\H,1.680285227,0.2891466689,-0.914801
 0627\H,0.3955007034,1.0313694748,3.0109226163\H,0.4557678131,-0.419687
 3757,4.0106480287\H,1.7761893926,-0.0523359368,2.9112278321\H,2.363362
 6471,-1.6267152811,1.0273825962\\Version=EM64L-G16RevA.03\State=1-A\HF
 =-233.6325874,-233.6324827,-233.6321847,-233.6317527,-233.63129,-233.6
 309311,-233.6307929,-233.6309351,-233.6313182,-233.6318279,-233.632318
 9,-233.6326705,-233.6328134,-233.6327263,-233.6324408,-233.6320355,-23
 3.6316195,-233.6313105,-233.6312,-233.6313265,-233.6316554,-233.632093
 9,-233.632523,-233.6328356,-233.632959,-233.6328721,-233.6326042,-233.
 632221,-233.6318132,-233.6314805,-233.6313029,-233.6313219,-233.631528
 2,-233.6318603,-233.6322151,-233.6324835,-233.6325873\RMSD=9.406e-09,2
 .394e-09,1.986e-09,2.381e-09,7.281e-09,5.450e-09,5.867e-09,6.548e-09,4
 .123e-09,4.051e-09,4.293e-09,4.111e-09,8.232e-09,4.272e-09,4.490e-09,5
 .233e-09,3.965e-09,5.616e-09,6.605e-09,5.888e-09,5.846e-09,4.184e-09,2
 .996e-09,3.769e-09,5.286e-09,4.651e-09,6.169e-09,5.947e-09,4.878e-09,5
 .164e-09,5.384e-09,3.218e-09,5.956e-09,6.063e-09,5.455e-09,6.220e-09,6
 .030e-09\PG=C01 [X(C4H10O1)]\\@


 ... UNTIL SCIENCE IS MIXED WITH EMOTION AND APPEALS TO THE HEART AND
 IMAGINATION , IT IS LIKE DEAD INORGANIC MATTER; AND WHEN IT IS SO MIXED
 AND SO TRANSFORMED IT IS LITERATURE.

                                  -- JOHN BURROUGHS
 Job cpu time:       0 days 20 hours 26 minutes 17.7 seconds.
 Elapsed time:       0 days  1 hours  2 minutes  1.3 seconds.
 File lengths (MBytes):  RWF=   1328 Int=      0 D2E=      0 Chk=     32 Scr=     32
 Normal termination of Gaussian 16 at Mon Mar 11 01:07:12 2019.
