 Entering Gaussian System, Link 0=g16
 Input=OJWHOIQFDAGZNF-UHFFFAOYSA-N_GeoFreq_c6_a1.com
 Output=OJWHOIQFDAGZNF-UHFFFAOYSA-N_GeoFreq_c6_a1.log
 Initial command:
 /shared/centos7/gaussian/g16/l1.exe "/scratch/underkoffler.c/gaussian_scratch/Gau-38824.inp" -scrdir="/scratch/underkoffler.c/gaussian_scratch/"
 Entering Link 1 = /shared/centos7/gaussian/g16/l1.exe PID=     38825.
  
 Copyright (c) 1988,1990,1992,1993,1995,1998,2003,2009,2016,
            Gaussian, Inc.  All Rights Reserved.
  
 This is part of the Gaussian(R) 16 program.  It is based on
 the Gaussian(R) 09 system (copyright 2009, Gaussian, Inc.),
 the Gaussian(R) 03 system (copyright 2003, Gaussian, Inc.),
 the Gaussian(R) 98 system (copyright 1998, Gaussian, Inc.),
 the Gaussian(R) 94 system (copyright 1995, Gaussian, Inc.),
 the Gaussian 92(TM) system (copyright 1992, Gaussian, Inc.),
 the Gaussian 90(TM) system (copyright 1990, Gaussian, Inc.),
 the Gaussian 88(TM) system (copyright 1988, Gaussian, Inc.),
 the Gaussian 86(TM) system (copyright 1986, Carnegie Mellon
 University), and the Gaussian 82(TM) system (copyright 1983,
 Carnegie Mellon University). Gaussian is a federally registered
 trademark of Gaussian, Inc.
  
 This software contains proprietary and confidential information,
 including trade secrets, belonging to Gaussian, Inc.
  
 This software is provided under written license and may be
 used, copied, transmitted, or stored only in accord with that
 written license.
  
 The following legend is applicable only to US Government
 contracts under FAR:
  
                    RESTRICTED RIGHTS LEGEND
  
 Use, reproduction and disclosure by the US Government is
 subject to restrictions as set forth in subparagraphs (a)
 and (c) of the Commercial Computer Software - Restricted
 Rights clause in FAR 52.227-19.
  
 Gaussian, Inc.
 340 Quinnipiac St., Bldg. 40, Wallingford CT 06492
  
  
 ---------------------------------------------------------------
 Warning -- This program may not be used in any manner that
 competes with the business of Gaussian, Inc. or will provide
 assistance to any competitor of Gaussian, Inc.  The licensee
 of this program is prohibited from giving any competitor of
 Gaussian, Inc. access to this program.  By using this program,
 the user acknowledges that Gaussian, Inc. is engaged in the
 business of creating and licensing software in the field of
 computational chemistry and represents and warrants to the
 licensee that it is not a competitor of Gaussian, Inc. and that
 it will not use this program in any manner prohibited above.
 ---------------------------------------------------------------
  

 Cite this work as:
 Gaussian 16, Revision A.03,
 M. J. Frisch, G. W. Trucks, H. B. Schlegel, G. E. Scuseria, 
 M. A. Robb, J. R. Cheeseman, G. Scalmani, V. Barone, 
 G. A. Petersson, H. Nakatsuji, X. Li, M. Caricato, A. V. Marenich, 
 J. Bloino, B. G. Janesko, R. Gomperts, B. Mennucci, H. P. Hratchian, 
 J. V. Ortiz, A. F. Izmaylov, J. L. Sonnenberg, D. Williams-Young, 
 F. Ding, F. Lipparini, F. Egidi, J. Goings, B. Peng, A. Petrone, 
 T. Henderson, D. Ranasinghe, V. G. Zakrzewski, J. Gao, N. Rega, 
 G. Zheng, W. Liang, M. Hada, M. Ehara, K. Toyota, R. Fukuda, 
 J. Hasegawa, M. Ishida, T. Nakajima, Y. Honda, O. Kitao, H. Nakai, 
 T. Vreven, K. Throssell, J. A. Montgomery, Jr., J. E. Peralta, 
 F. Ogliaro, M. J. Bearpark, J. J. Heyd, E. N. Brothers, K. N. Kudin, 
 V. N. Staroverov, T. A. Keith, R. Kobayashi, J. Normand, 
 K. Raghavachari, A. P. Rendell, J. C. Burant, S. S. Iyengar, 
 J. Tomasi, M. Cossi, J. M. Millam, M. Klene, C. Adamo, R. Cammi, 
 J. W. Ochterski, R. L. Martin, K. Morokuma, O. Farkas, 
 J. B. Foresman, and D. J. Fox, Gaussian, Inc., Wallingford CT, 2016.
 
 ******************************************
 Gaussian 16:  EM64L-G16RevA.03 25-Dec-2016
                 9-Apr-2019 
 ******************************************
 %nprocshared=20
 Will use up to   20 processors via shared memory.
 %mem=5GB
 ----------------------------------------------------------------------
 #p m062x/6-311+g(2df,2p) opt=(calcfc,verytight,gdiis,maxcycles=900) fr
 eq iop(7/33=1,2/16=3)
 ----------------------------------------------------------------------

 Warning!  Use of Opt=GDIIS is deprecated since it is seldom a good choice.

 1/6=900,7=1,10=4,18=20,19=11,26=3,38=1/1,3;
 2/9=110,12=2,16=3,17=6,18=5,40=1/2;
 3/5=4,6=6,7=214,11=2,25=1,30=1,71=2,74=-55,140=1/1,2,3;
 4//1;
 5/5=2,38=5/2;
 8/6=4,10=90,11=11/1;
 11/6=1,8=1,9=11,15=111,16=1/1,2,10;
 10/6=1,13=1/2;
 6/7=2,8=2,9=2,10=2,28=1/1;
 7/10=1,18=20,25=1,33=1/1,2,3,16;
 1/6=900,7=1,10=4,18=20,19=11,26=3/3(2);
 2/9=110,16=3/2;
 99//99;
 2/9=110,16=3/2;
 3/5=4,6=6,7=214,11=2,25=1,30=1,71=1,74=-55/1,2,3;
 4/5=5,16=3,69=1/1;
 5/5=2,38=5/2;
 7/33=1/1,2,3,16;
 1/6=900,7=1,18=20,19=11,26=3/3(-5);
 2/9=110,16=3/2;
 6/7=2,8=2,9=2,10=2,19=2,28=1/1;
 99/9=1/99;
 Leave Link    1 at Tue Apr  9 02:09:22 2019, MaxMem=   671088640 cpu:              25.9 elap:               1.4
 (Enter /shared/centos7/gaussian/g16/l101.exe)
 ------------------------------
 Gaussian input prepared by ASE
 ------------------------------
 Symbolic Z-matrix:
 Charge =  0 Multiplicity = 2
 O                     1.41384   0.0603   -0.54668 
 O                     0.71777  -1.18266   1.28864 
 C                    -0.89736  -0.63427  -0.45376 
 C                    -1.75096   0.53282  -0.04725 
 C                     0.43636  -0.63046   0.18166 
 C                     2.68914   0.0762    0.09302 
 H                    -0.7757   -0.64634  -1.557 
 H                    -1.4214   -1.58499  -0.18076 
 H                    -1.24458   1.16174   0.72336 
 H                    -2.72377   0.1853    0.38256 
 H                    -1.98056   1.17694  -0.90619 
 H                     3.31691   0.86488  -0.33837 
 H                     2.63405  -0.00042   1.18427 
 
 Add atom      6 valence  3 ND=      2 dihedral       1      6     12     13
 ITRead=  0  0  0  0  0  0  0  0  0  0  0  0  0
 MicOpt= -1 -1 -1 -1 -1 -1 -1 -1 -1 -1 -1 -1 -1
 NAtoms=     13 NQM=       13 NQMF=       0 NMMI=      0 NMMIF=      0
                NMic=       0 NMicF=      0.
                    Isotopes and Nuclear Properties:
 (Nuclear quadrupole moments (NQMom) in fm**2, nuclear magnetic moments (NMagM)
  in nuclear magnetons)

  Atom         1           2           3           4           5           6           7           8           9          10
 IAtWgt=          16          16          12          12          12          12           1           1           1           1
 AtmWgt=  15.9949146  15.9949146  12.0000000  12.0000000  12.0000000  12.0000000   1.0078250   1.0078250   1.0078250   1.0078250
 NucSpn=           0           0           0           0           0           0           1           1           1           1
 AtZEff=  -0.0000000  -0.0000000  -0.0000000  -0.0000000  -0.0000000  -0.0000000  -0.0000000  -0.0000000  -0.0000000  -0.0000000
 NQMom=    0.0000000   0.0000000   0.0000000   0.0000000   0.0000000   0.0000000   0.0000000   0.0000000   0.0000000   0.0000000
 NMagM=    0.0000000   0.0000000   0.0000000   0.0000000   0.0000000   0.0000000   2.7928460   2.7928460   2.7928460   2.7928460
 AtZNuc=   8.0000000   8.0000000   6.0000000   6.0000000   6.0000000   6.0000000   1.0000000   1.0000000   1.0000000   1.0000000

  Atom        11          12          13
 IAtWgt=           1           1           1
 AtmWgt=   1.0078250   1.0078250   1.0078250
 NucSpn=           1           1           1
 AtZEff=  -0.0000000  -0.0000000  -0.0000000
 NQMom=    0.0000000   0.0000000   0.0000000
 NMagM=    2.7928460   2.7928460   2.7928460
 AtZNuc=   1.0000000   1.0000000   1.0000000
 Leave Link  101 at Tue Apr  9 02:09:22 2019, MaxMem=   671088640 cpu:               4.8 elap:               0.3
 (Enter /shared/centos7/gaussian/g16/l103.exe)

 GradGradGradGradGradGradGradGradGradGradGradGradGradGradGradGradGradGrad
 Berny optimization.
 Initialization pass.
                           ----------------------------
                           !    Initial Parameters    !
                           ! (Angstroms and Degrees)  !
 --------------------------                            --------------------------
 ! Name  Definition              Value          Derivative Info.                !
 --------------------------------------------------------------------------------
 ! R1    R(1,5)                  1.4011         calculate D2E/DX2 analytically  !
 ! R2    R(1,6)                  1.4268         calculate D2E/DX2 analytically  !
 ! R3    R(2,5)                  1.2687         calculate D2E/DX2 analytically  !
 ! R4    R(3,4)                  1.502          calculate D2E/DX2 analytically  !
 ! R5    R(3,5)                  1.4774         calculate D2E/DX2 analytically  !
 ! R6    R(3,7)                  1.11           calculate D2E/DX2 analytically  !
 ! R7    R(3,8)                  1.1194         calculate D2E/DX2 analytically  !
 ! R8    R(4,9)                  1.1161         calculate D2E/DX2 analytically  !
 ! R9    R(4,10)                 1.1189         calculate D2E/DX2 analytically  !
 ! R10   R(4,11)                 1.0979         calculate D2E/DX2 analytically  !
 ! R11   R(6,12)                 1.0964         calculate D2E/DX2 analytically  !
 ! R12   R(6,13)                 1.0953         calculate D2E/DX2 analytically  !
 ! A1    A(5,1,6)              113.3278         calculate D2E/DX2 analytically  !
 ! A2    A(4,3,5)              113.2439         calculate D2E/DX2 analytically  !
 ! A3    A(4,3,7)              109.8612         calculate D2E/DX2 analytically  !
 ! A4    A(4,3,8)              109.1403         calculate D2E/DX2 analytically  !
 ! A5    A(5,3,7)              109.1822         calculate D2E/DX2 analytically  !
 ! A6    A(5,3,8)              108.6586         calculate D2E/DX2 analytically  !
 ! A7    A(7,3,8)              106.5274         calculate D2E/DX2 analytically  !
 ! A8    A(3,4,9)              111.5222         calculate D2E/DX2 analytically  !
 ! A9    A(3,4,10)             110.9005         calculate D2E/DX2 analytically  !
 ! A10   A(3,4,11)             111.2831         calculate D2E/DX2 analytically  !
 ! A11   A(9,4,10)             107.7134         calculate D2E/DX2 analytically  !
 ! A12   A(9,4,11)             107.7244         calculate D2E/DX2 analytically  !
 ! A13   A(10,4,11)            107.5136         calculate D2E/DX2 analytically  !
 ! A14   A(1,5,2)              120.8917         calculate D2E/DX2 analytically  !
 ! A15   A(1,5,3)              114.0481         calculate D2E/DX2 analytically  !
 ! A16   A(2,5,3)              125.0593         calculate D2E/DX2 analytically  !
 ! A17   A(1,6,12)             110.0816         calculate D2E/DX2 analytically  !
 ! A18   A(1,6,13)             113.6362         calculate D2E/DX2 analytically  !
 ! A19   A(12,6,13)            118.1058         calculate D2E/DX2 analytically  !
 ! D1    D(6,1,5,2)             -0.7989         calculate D2E/DX2 analytically  !
 ! D2    D(6,1,5,3)            178.8665         calculate D2E/DX2 analytically  !
 ! D3    D(5,1,6,12)          -162.5228         calculate D2E/DX2 analytically  !
 ! D4    D(5,1,6,13)           -27.489          calculate D2E/DX2 analytically  !
 ! D5    D(5,3,4,9)             -3.9314         calculate D2E/DX2 analytically  !
 ! D6    D(5,3,4,10)          -123.9771         calculate D2E/DX2 analytically  !
 ! D7    D(5,3,4,11)           116.3886         calculate D2E/DX2 analytically  !
 ! D8    D(7,3,4,9)           -126.3001         calculate D2E/DX2 analytically  !
 ! D9    D(7,3,4,10)           113.6542         calculate D2E/DX2 analytically  !
 ! D10   D(7,3,4,11)            -5.9801         calculate D2E/DX2 analytically  !
 ! D11   D(8,3,4,9)            117.2423         calculate D2E/DX2 analytically  !
 ! D12   D(8,3,4,10)            -2.8034         calculate D2E/DX2 analytically  !
 ! D13   D(8,3,4,11)          -122.4377         calculate D2E/DX2 analytically  !
 ! D14   D(4,3,5,1)            -89.5408         calculate D2E/DX2 analytically  !
 ! D15   D(4,3,5,2)             90.1084         calculate D2E/DX2 analytically  !
 ! D16   D(7,3,5,1)             33.205          calculate D2E/DX2 analytically  !
 ! D17   D(7,3,5,2)           -147.1459         calculate D2E/DX2 analytically  !
 ! D18   D(8,3,5,1)            149.0144         calculate D2E/DX2 analytically  !
 ! D19   D(8,3,5,2)            -31.3365         calculate D2E/DX2 analytically  !
 ! D20   D(1,6,12,13)          132.7811         calculate D2E/DX2 analytically  !
 --------------------------------------------------------------------------------
 Trust Radius=3.00D-01 FncErr=1.00D-07 GrdErr=1.00D-06 EigMax=2.50D+02 EigMin=1.00D-04
 Number of steps in this run=    100 maximum allowed number of steps=    100.
 GradGradGradGradGradGradGradGradGradGradGradGradGradGradGradGradGradGrad

 Leave Link  103 at Tue Apr  9 02:09:22 2019, MaxMem=   671088640 cpu:               0.1 elap:               0.0
 (Enter /shared/centos7/gaussian/g16/l202.exe)
                          Input orientation:                          
 ---------------------------------------------------------------------
 Center     Atomic      Atomic             Coordinates (Angstroms)
 Number     Number       Type             X           Y           Z
 ---------------------------------------------------------------------
      1          8           0        1.413845    0.060295   -0.546683
      2          8           0        0.717772   -1.182664    1.288640
      3          6           0       -0.897357   -0.634270   -0.453759
      4          6           0       -1.750957    0.532818   -0.047248
      5          6           0        0.436358   -0.630464    0.181664
      6          6           0        2.689144    0.076199    0.093020
      7          1           0       -0.775697   -0.646345   -1.556996
      8          1           0       -1.421400   -1.584988   -0.180760
      9          1           0       -1.244581    1.161739    0.723355
     10          1           0       -2.723766    0.185296    0.382556
     11          1           0       -1.980558    1.176942   -0.906194
     12          1           0        3.316908    0.864875   -0.338373
     13          1           0        2.634045   -0.000422    1.184268
 ---------------------------------------------------------------------
                    Distance matrix (angstroms):
                    1          2          3          4          5
     1  O    0.000000
     2  O    2.323332   0.000000
     3  C    2.415100   2.438305   0.000000
     4  C    3.238623   3.289696   1.501992   0.000000
     5  C    1.401113   1.268666   1.477353   2.487966   0.000000
     6  C    1.426836   2.626889   3.696853   4.465722   2.362684
     7  H    2.512800   3.258179   1.109990   2.149626   2.119497
     8  H    3.298404   2.626225   1.119381   2.147448   2.119843
     9  H    3.145378   3.109116   2.175273   1.116149   2.516144
    10  H    4.242515   3.812675   2.169536   1.118866   3.269894
    11  H    3.591395   4.203097   2.158359   1.097908   3.208058
    12  H    2.076630   3.687152   4.474458   5.087069   3.286951
    13  H    2.118671   2.254039   3.944071   4.585763   2.496397
                    6          7          8          9         10
     6  C    0.000000
     7  H    3.905092   0.000000
     8  H    4.441967   1.786620   0.000000
     9  H    4.129154   2.947715   2.897102   0.000000
    10  H    5.421746   2.872014   2.268785   1.804875   0.000000
    11  H    4.900630   2.280265   2.909841   1.788106   1.787904
    12  H    1.096448   4.529707   5.336501   4.692822   6.121382
    13  H    1.095321   4.422453   4.562980   4.075145   5.420644
                   11         12         13
    11  H    0.000000
    12  H    5.336942   0.000000
    13  H    5.201037   1.879755   0.000000
 Stoichiometry    C4H7O2(2)
 Framework group  C1[X(C4H7O2)]
 Deg. of freedom    33
 Full point group                 C1      NOp   1
 Largest Abelian subgroup         C1      NOp   1
 Largest concise Abelian subgroup C1      NOp   1
                         Standard orientation:                         
 ---------------------------------------------------------------------
 Center     Atomic      Atomic             Coordinates (Angstroms)
 Number     Number       Type             X           Y           Z
 ---------------------------------------------------------------------
      1          8           0       -0.962998   -0.759576   -0.251172
      2          8           0       -0.484524    1.476270    0.161051
      3          6           0        1.300769    0.003353   -0.606139
      4          6           0        2.160888   -0.441757    0.541925
      5          6           0       -0.083202    0.329912   -0.205443
      6          6           0       -2.288731   -0.433018    0.163139
      7          1           0        1.277902   -0.784408   -1.387795
      8          1           0        1.759575    0.908164   -1.079246
      9          1           0        1.613348   -0.378241    1.512468
     10          1           0        3.076561    0.195782    0.625292
     11          1           0        2.492161   -1.480450    0.412402
     12          1           0       -2.843114   -1.347204    0.406287
     13          1           0       -2.334604    0.401867    0.870665
 ---------------------------------------------------------------------
 Rotational constants (GHZ):           6.9403844           2.3900349           2.0198515
 Leave Link  202 at Tue Apr  9 02:09:22 2019, MaxMem=   671088640 cpu:               0.2 elap:               0.0
 (Enter /shared/centos7/gaussian/g16/l301.exe)
 Standard basis: 6-311+G(2df,2p) (5D, 7F)
 Ernie: Thresh=  0.10000D-02 Tol=  0.10000D-05 Strict=F.
 There are   297 symmetry adapted cartesian basis functions of A   symmetry.
 There are   267 symmetry adapted basis functions of A   symmetry.
   267 basis functions,   389 primitive gaussians,   297 cartesian basis functions
    24 alpha electrons       23 beta electrons
       nuclear repulsion energy       233.3279977266 Hartrees.
 IExCor= 4336 DFT=T Ex+Corr=M062X ExCW=0 ScaHFX=  0.540000
 ScaDFX=  1.000000  1.000000  1.000000  1.000000 ScalE2=  1.000000  1.000000
 IRadAn=      5 IRanWt=     -1 IRanGd=            0 ICorTp=0 IEmpDi=  4
 NAtoms=   13 NActive=   13 NUniq=   13 SFac= 1.00D+00 NAtFMM=   60 NAOKFM=F Big=F
 Integral buffers will be    131072 words long.
 Raffenetti 2 integral format.
 Two-electron integral symmetry is turned on.
 Leave Link  301 at Tue Apr  9 02:09:22 2019, MaxMem=   671088640 cpu:               0.8 elap:               0.1
 (Enter /shared/centos7/gaussian/g16/l302.exe)
 NPDir=0 NMtPBC=     1 NCelOv=     1 NCel=       1 NClECP=     1 NCelD=      1
         NCelK=      1 NCelE2=     1 NClLst=     1 CellRange=     0.0.
 One-electron integrals computed using PRISM.
 One-electron integral symmetry used in STVInt
 NBasis=   267 RedAO= T EigKep=  2.56D-05  NBF=   267
 NBsUse=   267 1.00D-06 EigRej= -1.00D+00 NBFU=   267
 Precomputing XC quadrature grid using
 IXCGrd= 4 IRadAn=           5 IRanWt=          -1 IRanGd=           0 AccXCQ= 0.00D+00.
 Generated NRdTot=       0 NPtTot=           0 NUsed=           0 NTot=          32
 NSgBfM=   297   297   297   297   297 MxSgAt=    13 MxSgA2=    13.
 Leave Link  302 at Tue Apr  9 02:09:22 2019, MaxMem=   671088640 cpu:               5.9 elap:               0.3
 (Enter /shared/centos7/gaussian/g16/l303.exe)
 DipDrv:  MaxL=1.
 Leave Link  303 at Tue Apr  9 02:09:22 2019, MaxMem=   671088640 cpu:               0.5 elap:               0.0
 (Enter /shared/centos7/gaussian/g16/l401.exe)
 ExpMin= 4.38D-02 ExpMax= 8.59D+03 ExpMxC= 1.30D+03 IAcc=3 IRadAn=         5 AccDes= 0.00D+00
 Harris functional with IExCor= 1009 and IRadAn=       5 diagonalized for initial guess.
 HarFok:  IExCor= 1009 AccDes= 0.00D+00 IRadAn=         5 IDoV= 1 UseB2=F ITyADJ=14
 ICtDFT=  3500011 ScaDFX=  1.000000  1.000000  1.000000  1.000000
 FoFCou: FMM=F IPFlag=           0 FMFlag=      100000 FMFlg1=           0
         NFxFlg=           0 DoJE=T BraDBF=F KetDBF=T FulRan=T
         wScrn=  0.000000 ICntrl=       500 IOpCl=  0 I1Cent=   200000004 NGrid=           0
         NMat0=    1 NMatS0=      1 NMatT0=    0 NMatD0=    1 NMtDS0=    0 NMtDT0=    0
 Petite list used in FoFCou.
 Harris En= -306.842200813142    
 JPrj=0 DoOrth=F DoCkMO=F.
 Initial guess <Sx>= 0.0000 <Sy>= 0.0000 <Sz>= 0.5000 <S**2>= 0.7500 S= 0.5000
 Leave Link  401 at Tue Apr  9 02:09:23 2019, MaxMem=   671088640 cpu:              17.7 elap:               0.9
 (Enter /shared/centos7/gaussian/g16/l502.exe)
 Integral symmetry usage will be decided dynamically.
 UHF open shell SCF:
 Using DIIS extrapolation, IDIIS=  1040.
 NGot=   671088640 LenX=   670903575 LenY=   670814925
 Requested convergence on RMS density matrix=1.00D-08 within 128 cycles.
 Requested convergence on MAX density matrix=1.00D-06.
 Requested convergence on             energy=1.00D-06.
 No special actions if energy rises.
 Fock matrices will be formed incrementally for  20 cycles.

 Cycle   1  Pass 1  IDiag  1:
 FoFJK:  IHMeth= 1 ICntrl=       0 DoSepK=F KAlg= 0 I1Cent=           0 FoldK=F
 IRaf= 960000000 NMat=       1 IRICut=       1 DoRegI=T DoRafI=F ISym2E= 0 IDoP0=0 IntGTp=1.
 FoFCou: FMM=F IPFlag=           0 FMFlag=      100000 FMFlg1=           0
         NFxFlg=           0 DoJE=F BraDBF=F KetDBF=F FulRan=T
         wScrn=  0.000000 ICntrl=         0 IOpCl=  1 I1Cent=           0 NGrid=           0
         NMat0=    1 NMatS0=      1 NMatT0=    0 NMatD0=    1 NMtDS0=    0 NMtDT0=    0
 Symmetry not used in FoFCou.
 E= -306.792808578179    
 DIIS: error= 2.04D-02 at cycle   1 NSaved=   1.
 NSaved= 1 IEnMin= 1 EnMin= -306.792808578179     IErMin= 1 ErrMin= 2.04D-02
 ErrMax= 2.04D-02  0.00D+00 EMaxC= 1.00D-01 BMatC= 1.02D+00 BMatP= 1.02D+00
 IDIUse=3 WtCom= 7.96D-01 WtEn= 2.04D-01
 Coeff-Com:  0.100D+01
 Coeff-En:   0.100D+01
 Coeff:      0.100D+01
 Gap=     0.286 Goal=   None    Shift=    0.000
 Gap=     0.224 Goal=   None    Shift=    0.000
 GapD=    0.224 DampG=1.000 DampE=0.500 DampFc=0.5000 IDamp=-1.
 Damping current iteration by 5.00D-01
 RMSDP=2.84D-03 MaxDP=1.05D-01              OVMax= 2.07D-01

 Cycle   2  Pass 1  IDiag  1:
 RMSU=  1.42D-03    CP:  9.93D-01
 E= -306.872381430176     Delta-E=       -0.079572851997 Rises=F Damp=T
 DIIS: error= 6.78D-03 at cycle   2 NSaved=   2.
 NSaved= 2 IEnMin= 2 EnMin= -306.872381430176     IErMin= 2 ErrMin= 6.78D-03
 ErrMax= 6.78D-03  0.00D+00 EMaxC= 1.00D-01 BMatC= 1.14D-01 BMatP= 1.02D+00
 IDIUse=3 WtCom= 9.32D-01 WtEn= 6.78D-02
 Coeff-Com:  0.560D-01 0.944D+00
 Coeff-En:   0.119D+00 0.881D+00
 Coeff:      0.603D-01 0.940D+00
 Gap=     0.382 Goal=   None    Shift=    0.000
 Gap=     0.333 Goal=   None    Shift=    0.000
 RMSDP=1.16D-03 MaxDP=7.10D-02 DE=-7.96D-02 OVMax= 1.45D-01

 Cycle   3  Pass 1  IDiag  1:
 RMSU=  1.05D-03    CP:  9.59D-01  7.60D-01
 E= -306.965727132586     Delta-E=       -0.093345702410 Rises=F Damp=F
 DIIS: error= 7.06D-03 at cycle   3 NSaved=   3.
 NSaved= 3 IEnMin= 3 EnMin= -306.965727132586     IErMin= 2 ErrMin= 6.78D-03
 ErrMax= 7.06D-03  0.00D+00 EMaxC= 1.00D-01 BMatC= 9.21D-02 BMatP= 1.14D-01
 IDIUse=3 WtCom= 9.29D-01 WtEn= 7.06D-02
 Coeff-Com: -0.657D-01 0.491D+00 0.575D+00
 Coeff-En:   0.000D+00 0.000D+00 0.100D+01
 Coeff:     -0.611D-01 0.456D+00 0.605D+00
 Gap=     0.287 Goal=   None    Shift=    0.000
 Gap=     0.310 Goal=   None    Shift=    0.000
 RMSDP=4.86D-04 MaxDP=1.62D-02 DE=-9.33D-02 OVMax= 6.28D-02

 Cycle   4  Pass 1  IDiag  1:
 RMSU=  4.31D-04    CP:  9.58D-01  8.98D-01  8.95D-01
 E= -306.980888078450     Delta-E=       -0.015160945864 Rises=F Damp=F
 DIIS: error= 3.04D-03 at cycle   4 NSaved=   4.
 NSaved= 4 IEnMin= 4 EnMin= -306.980888078450     IErMin= 4 ErrMin= 3.04D-03
 ErrMax= 3.04D-03  0.00D+00 EMaxC= 1.00D-01 BMatC= 1.38D-02 BMatP= 9.21D-02
 IDIUse=3 WtCom= 9.70D-01 WtEn= 3.04D-02
 Coeff-Com: -0.310D-01 0.753D-01 0.312D+00 0.644D+00
 Coeff-En:   0.000D+00 0.000D+00 0.106D+00 0.894D+00
 Coeff:     -0.300D-01 0.730D-01 0.305D+00 0.652D+00
 Gap=     0.289 Goal=   None    Shift=    0.000
 Gap=     0.312 Goal=   None    Shift=    0.000
 RMSDP=1.69D-04 MaxDP=5.42D-03 DE=-1.52D-02 OVMax= 1.49D-02

 Cycle   5  Pass 1  IDiag  1:
 RMSU=  9.64D-05    CP:  9.56D-01  8.66D-01  9.67D-01  7.54D-01
 E= -306.983723102812     Delta-E=       -0.002835024362 Rises=F Damp=F
 DIIS: error= 4.51D-04 at cycle   5 NSaved=   5.
 NSaved= 5 IEnMin= 5 EnMin= -306.983723102812     IErMin= 5 ErrMin= 4.51D-04
 ErrMax= 4.51D-04  0.00D+00 EMaxC= 1.00D-01 BMatC= 3.33D-04 BMatP= 1.38D-02
 IDIUse=3 WtCom= 9.95D-01 WtEn= 4.51D-03
 Coeff-Com: -0.414D-02-0.248D-02 0.546D-01 0.175D+00 0.777D+00
 Coeff-En:   0.000D+00 0.000D+00 0.000D+00 0.000D+00 0.100D+01
 Coeff:     -0.412D-02-0.247D-02 0.544D-01 0.175D+00 0.778D+00
 Gap=     0.290 Goal=   None    Shift=    0.000
 Gap=     0.313 Goal=   None    Shift=    0.000
 RMSDP=4.65D-05 MaxDP=2.94D-03 DE=-2.84D-03 OVMax= 7.17D-03

 Cycle   6  Pass 1  IDiag  1:
 RMSU=  4.02D-05    CP:  9.55D-01  8.63D-01  9.82D-01  7.76D-01  1.13D+00
 E= -306.983870888968     Delta-E=       -0.000147786156 Rises=F Damp=F
 DIIS: error= 2.94D-04 at cycle   6 NSaved=   6.
 NSaved= 6 IEnMin= 6 EnMin= -306.983870888968     IErMin= 6 ErrMin= 2.94D-04
 ErrMax= 2.94D-04  0.00D+00 EMaxC= 1.00D-01 BMatC= 1.37D-04 BMatP= 3.33D-04
 IDIUse=3 WtCom= 9.97D-01 WtEn= 2.94D-03
 Coeff-Com:  0.481D-02-0.184D-01-0.439D-01-0.768D-01 0.317D+00 0.817D+00
 Coeff-En:   0.000D+00 0.000D+00 0.000D+00 0.000D+00 0.000D+00 0.100D+01
 Coeff:      0.479D-02-0.183D-01-0.438D-01-0.766D-01 0.316D+00 0.818D+00
 Gap=     0.291 Goal=   None    Shift=    0.000
 Gap=     0.314 Goal=   None    Shift=    0.000
 RMSDP=3.32D-05 MaxDP=1.35D-03 DE=-1.48D-04 OVMax= 4.56D-03

 Cycle   7  Pass 1  IDiag  1:
 RMSU=  1.98D-05    CP:  9.55D-01  8.62D-01  9.89D-01  7.81D-01  1.37D+00
                    CP:  1.26D+00
 E= -306.983928973819     Delta-E=       -0.000058084851 Rises=F Damp=F
 DIIS: error= 1.39D-04 at cycle   7 NSaved=   7.
 NSaved= 7 IEnMin= 7 EnMin= -306.983928973819     IErMin= 7 ErrMin= 1.39D-04
 ErrMax= 1.39D-04  0.00D+00 EMaxC= 1.00D-01 BMatC= 2.44D-05 BMatP= 1.37D-04
 IDIUse=3 WtCom= 9.99D-01 WtEn= 1.39D-03
 Coeff-Com:  0.341D-02-0.653D-02-0.333D-01-0.880D-01-0.811D-01 0.330D+00
 Coeff-Com:  0.876D+00
 Coeff-En:   0.000D+00 0.000D+00 0.000D+00 0.000D+00 0.000D+00 0.000D+00
 Coeff-En:   0.100D+01
 Coeff:      0.341D-02-0.653D-02-0.332D-01-0.879D-01-0.810D-01 0.329D+00
 Coeff:      0.876D+00
 Gap=     0.292 Goal=   None    Shift=    0.000
 Gap=     0.315 Goal=   None    Shift=    0.000
 RMSDP=1.94D-05 MaxDP=9.91D-04 DE=-5.81D-05 OVMax= 3.07D-03

 Cycle   8  Pass 1  IDiag  1:
 RMSU=  9.05D-06    CP:  9.56D-01  8.62D-01  9.89D-01  7.74D-01  1.51D+00
                    CP:  1.49D+00  1.23D+00
 E= -306.983942710629     Delta-E=       -0.000013736810 Rises=F Damp=F
 DIIS: error= 4.63D-05 at cycle   8 NSaved=   8.
 NSaved= 8 IEnMin= 8 EnMin= -306.983942710629     IErMin= 8 ErrMin= 4.63D-05
 ErrMax= 4.63D-05  0.00D+00 EMaxC= 1.00D-01 BMatC= 2.66D-06 BMatP= 2.44D-05
 IDIUse=1 WtCom= 1.00D+00 WtEn= 0.00D+00
 Coeff-Com:  0.317D-03 0.355D-03-0.377D-02-0.163D-01-0.654D-01-0.632D-02
 Coeff-Com:  0.277D+00 0.814D+00
 Coeff:      0.317D-03 0.355D-03-0.377D-02-0.163D-01-0.654D-01-0.632D-02
 Coeff:      0.277D+00 0.814D+00
 Gap=     0.292 Goal=   None    Shift=    0.000
 Gap=     0.315 Goal=   None    Shift=    0.000
 RMSDP=5.32D-06 MaxDP=3.47D-04 DE=-1.37D-05 OVMax= 6.60D-04

 Cycle   9  Pass 1  IDiag  1:
 RMSU=  2.67D-06    CP:  9.56D-01  8.63D-01  9.89D-01  7.71D-01  1.53D+00
                    CP:  1.56D+00  1.36D+00  1.05D+00
 E= -306.983943782894     Delta-E=       -0.000001072266 Rises=F Damp=F
 DIIS: error= 1.07D-05 at cycle   9 NSaved=   9.
 NSaved= 9 IEnMin= 9 EnMin= -306.983943782894     IErMin= 9 ErrMin= 1.07D-05
 ErrMax= 1.07D-05  0.00D+00 EMaxC= 1.00D-01 BMatC= 1.81D-07 BMatP= 2.66D-06
 IDIUse=1 WtCom= 1.00D+00 WtEn= 0.00D+00
 Coeff-Com: -0.445D-03 0.930D-03 0.362D-02 0.979D-02 0.252D-02-0.361D-01
 Coeff-Com: -0.831D-01 0.620D-01 0.104D+01
 Coeff:     -0.445D-03 0.930D-03 0.362D-02 0.979D-02 0.252D-02-0.361D-01
 Coeff:     -0.831D-01 0.620D-01 0.104D+01
 Gap=     0.292 Goal=   None    Shift=    0.000
 Gap=     0.315 Goal=   None    Shift=    0.000
 RMSDP=1.98D-06 MaxDP=1.02D-04 DE=-1.07D-06 OVMax= 2.22D-04

 Cycle  10  Pass 1  IDiag  1:
 RMSU=  9.95D-07    CP:  9.56D-01  8.64D-01  9.88D-01  7.70D-01  1.52D+00
                    CP:  1.56D+00  1.40D+00  1.14D+00  1.19D+00
 E= -306.983943893184     Delta-E=       -0.000000110290 Rises=F Damp=F
 DIIS: error= 3.15D-06 at cycle  10 NSaved=  10.
 NSaved=10 IEnMin=10 EnMin= -306.983943893184     IErMin=10 ErrMin= 3.15D-06
 ErrMax= 3.15D-06  0.00D+00 EMaxC= 1.00D-01 BMatC= 1.94D-08 BMatP= 1.81D-07
 IDIUse=1 WtCom= 1.00D+00 WtEn= 0.00D+00
 Coeff-Com: -0.562D-04 0.671D-04 0.362D-03 0.181D-02 0.431D-02-0.205D-02
 Coeff-Com: -0.243D-01-0.456D-01 0.685D-01 0.997D+00
 Coeff:     -0.562D-04 0.671D-04 0.362D-03 0.181D-02 0.431D-02-0.205D-02
 Coeff:     -0.243D-01-0.456D-01 0.685D-01 0.997D+00
 Gap=     0.292 Goal=   None    Shift=    0.000
 Gap=     0.315 Goal=   None    Shift=    0.000
 RMSDP=5.44D-07 MaxDP=1.75D-05 DE=-1.10D-07 OVMax= 8.99D-05

 Cycle  11  Pass 1  IDiag  1:
 RMSU=  3.37D-07    CP:  9.56D-01  8.64D-01  9.88D-01  7.70D-01  1.52D+00
                    CP:  1.56D+00  1.40D+00  1.16D+00  1.28D+00  1.21D+00
 E= -306.983943907510     Delta-E=       -0.000000014326 Rises=F Damp=F
 DIIS: error= 1.57D-06 at cycle  11 NSaved=  11.
 NSaved=11 IEnMin=11 EnMin= -306.983943907510     IErMin=11 ErrMin= 1.57D-06
 ErrMax= 1.57D-06  0.00D+00 EMaxC= 1.00D-01 BMatC= 4.68D-09 BMatP= 1.94D-08
 IDIUse=1 WtCom= 1.00D+00 WtEn= 0.00D+00
 Coeff-Com:  0.558D-04-0.130D-03-0.518D-03-0.114D-02 0.649D-03 0.499D-02
 Coeff-Com:  0.811D-02-0.180D-01-0.167D+00 0.212D+00 0.960D+00
 Coeff:      0.558D-04-0.130D-03-0.518D-03-0.114D-02 0.649D-03 0.499D-02
 Coeff:      0.811D-02-0.180D-01-0.167D+00 0.212D+00 0.960D+00
 Gap=     0.292 Goal=   None    Shift=    0.000
 Gap=     0.315 Goal=   None    Shift=    0.000
 RMSDP=2.67D-07 MaxDP=9.41D-06 DE=-1.43D-08 OVMax= 3.81D-05

 Cycle  12  Pass 1  IDiag  1:
 RMSU=  1.26D-07    CP:  9.56D-01  8.64D-01  9.88D-01  7.70D-01  1.52D+00
                    CP:  1.56D+00  1.40D+00  1.16D+00  1.31D+00  1.39D+00
                    CP:  1.29D+00
 E= -306.983943911143     Delta-E=       -0.000000003632 Rises=F Damp=F
 DIIS: error= 6.20D-07 at cycle  12 NSaved=  12.
 NSaved=12 IEnMin=12 EnMin= -306.983943911143     IErMin=12 ErrMin= 6.20D-07
 ErrMax= 6.20D-07  0.00D+00 EMaxC= 1.00D-01 BMatC= 7.83D-10 BMatP= 4.68D-09
 IDIUse=1 WtCom= 1.00D+00 WtEn= 0.00D+00
 Coeff-Com:  0.187D-04-0.321D-04-0.171D-03-0.530D-03-0.586D-03 0.124D-02
 Coeff-Com:  0.573D-02 0.513D-02-0.430D-01-0.122D+00 0.159D+00 0.996D+00
 Coeff:      0.187D-04-0.321D-04-0.171D-03-0.530D-03-0.586D-03 0.124D-02
 Coeff:      0.573D-02 0.513D-02-0.430D-01-0.122D+00 0.159D+00 0.996D+00
 Gap=     0.292 Goal=   None    Shift=    0.000
 Gap=     0.315 Goal=   None    Shift=    0.000
 RMSDP=1.13D-07 MaxDP=5.06D-06 DE=-3.63D-09 OVMax= 1.89D-05

 Cycle  13  Pass 1  IDiag  1:
 RMSU=  7.04D-08    CP:  9.56D-01  8.64D-01  9.88D-01  7.70D-01  1.52D+00
                    CP:  1.56D+00  1.40D+00  1.16D+00  1.32D+00  1.45D+00
                    CP:  1.45D+00  1.26D+00
 E= -306.983943911878     Delta-E=       -0.000000000735 Rises=F Damp=F
 DIIS: error= 2.97D-07 at cycle  13 NSaved=  13.
 NSaved=13 IEnMin=13 EnMin= -306.983943911878     IErMin=13 ErrMin= 2.97D-07
 ErrMax= 2.97D-07  0.00D+00 EMaxC= 1.00D-01 BMatC= 1.81D-10 BMatP= 7.83D-10
 IDIUse=1 WtCom= 1.00D+00 WtEn= 0.00D+00
 Coeff-Com: -0.897D-05 0.208D-04 0.769D-04 0.150D-03-0.183D-03-0.746D-03
 Coeff-Com: -0.867D-03 0.381D-02 0.257D-01-0.625D-01-0.182D+00 0.197D+00
 Coeff-Com:  0.102D+01
 Coeff:     -0.897D-05 0.208D-04 0.769D-04 0.150D-03-0.183D-03-0.746D-03
 Coeff:     -0.867D-03 0.381D-02 0.257D-01-0.625D-01-0.182D+00 0.197D+00
 Coeff:      0.102D+01
 Gap=     0.292 Goal=   None    Shift=    0.000
 Gap=     0.315 Goal=   None    Shift=    0.000
 RMSDP=5.98D-08 MaxDP=2.79D-06 DE=-7.35D-10 OVMax= 9.74D-06

 Cycle  14  Pass 1  IDiag  1:
 RMSU=  2.88D-08    CP:  9.56D-01  8.64D-01  9.88D-01  7.70D-01  1.52D+00
                    CP:  1.56D+00  1.40D+00  1.16D+00  1.32D+00  1.46D+00
                    CP:  1.52D+00  1.53D+00  1.32D+00
 E= -306.983943912068     Delta-E=       -0.000000000190 Rises=F Damp=F
 DIIS: error= 1.54D-07 at cycle  14 NSaved=  14.
 NSaved=14 IEnMin=14 EnMin= -306.983943912068     IErMin=14 ErrMin= 1.54D-07
 ErrMax= 1.54D-07  0.00D+00 EMaxC= 1.00D-01 BMatC= 3.20D-11 BMatP= 1.81D-10
 IDIUse=1 WtCom= 1.00D+00 WtEn= 0.00D+00
 Coeff-Com: -0.314D-05 0.613D-05 0.333D-04 0.918D-04 0.909D-04-0.260D-03
 Coeff-Com: -0.944D-03-0.736D-03 0.966D-02 0.199D-01-0.322D-01-0.175D+00
 Coeff-Com:  0.336D-01 0.115D+01
 Coeff:     -0.314D-05 0.613D-05 0.333D-04 0.918D-04 0.909D-04-0.260D-03
 Coeff:     -0.944D-03-0.736D-03 0.966D-02 0.199D-01-0.322D-01-0.175D+00
 Coeff:      0.336D-01 0.115D+01
 Gap=     0.292 Goal=   None    Shift=    0.000
 Gap=     0.315 Goal=   None    Shift=    0.000
 RMSDP=2.94D-08 MaxDP=1.55D-06 DE=-1.90D-10 OVMax= 5.99D-06

 Cycle  15  Pass 1  IDiag  1:
 RMSU=  1.35D-08    CP:  9.56D-01  8.64D-01  9.88D-01  7.70D-01  1.52D+00
                    CP:  1.56D+00  1.40D+00  1.16D+00  1.32D+00  1.45D+00
                    CP:  1.53D+00  1.62D+00  1.58D+00  1.46D+00
 E= -306.983943912120     Delta-E=       -0.000000000052 Rises=F Damp=F
 DIIS: error= 9.99D-08 at cycle  15 NSaved=  15.
 NSaved=15 IEnMin=15 EnMin= -306.983943912120     IErMin=15 ErrMin= 9.99D-08
 ErrMax= 9.99D-08  0.00D+00 EMaxC= 1.00D-01 BMatC= 8.59D-12 BMatP= 3.20D-11
 IDIUse=1 WtCom= 1.00D+00 WtEn= 0.00D+00
 Coeff-Com:  0.164D-05-0.387D-05-0.870D-05-0.185D-04 0.449D-04 0.788D-04
 Coeff-Com:  0.101D-03-0.789D-03-0.376D-02 0.128D-01 0.335D-01-0.624D-01
 Coeff-Com: -0.182D+00 0.979D-01 0.110D+01
 Coeff:      0.164D-05-0.387D-05-0.870D-05-0.185D-04 0.449D-04 0.788D-04
 Coeff:      0.101D-03-0.789D-03-0.376D-02 0.128D-01 0.335D-01-0.624D-01
 Coeff:     -0.182D+00 0.979D-01 0.110D+01
 Gap=     0.292 Goal=   None    Shift=    0.000
 Gap=     0.315 Goal=   None    Shift=    0.000
 RMSDP=1.56D-08 MaxDP=8.30D-07 DE=-5.18D-11 OVMax= 3.23D-06

 Cycle  16  Pass 1  IDiag  1:
 RMSU=  5.69D-09    CP:  9.56D-01  8.64D-01  9.88D-01  7.70D-01  1.52D+00
                    CP:  1.56D+00  1.40D+00  1.16D+00  1.32D+00  1.46D+00
                    CP:  1.53D+00  1.65D+00  1.67D+00  1.76D+00  1.55D+00
 E= -306.983943912133     Delta-E=       -0.000000000013 Rises=F Damp=F
 DIIS: error= 5.49D-08 at cycle  16 NSaved=  16.
 NSaved=16 IEnMin=16 EnMin= -306.983943912133     IErMin=16 ErrMin= 5.49D-08
 ErrMax= 5.49D-08  0.00D+00 EMaxC= 1.00D-01 BMatC= 2.37D-12 BMatP= 8.59D-12
 IDIUse=1 WtCom= 1.00D+00 WtEn= 0.00D+00
 Coeff-Com:  0.130D-05-0.266D-05-0.116D-04-0.305D-04-0.105D-04 0.893D-04
 Coeff-Com:  0.305D-03-0.134D-04-0.385D-02-0.246D-02 0.193D-01 0.319D-01
 Coeff-Com: -0.544D-01-0.317D+00 0.290D+00 0.104D+01
 Coeff:      0.130D-05-0.266D-05-0.116D-04-0.305D-04-0.105D-04 0.893D-04
 Coeff:      0.305D-03-0.134D-04-0.385D-02-0.246D-02 0.193D-01 0.319D-01
 Coeff:     -0.544D-01-0.317D+00 0.290D+00 0.104D+01
 Gap=     0.292 Goal=   None    Shift=    0.000
 Gap=     0.315 Goal=   None    Shift=    0.000
 RMSDP=8.86D-09 MaxDP=4.70D-07 DE=-1.31D-11 OVMax= 2.07D-06

 SCF Done:  E(UM062X) =  -306.983943912     A.U. after   16 cycles
            NFock= 16  Conv=0.89D-08     -V/T= 2.0052
 <Sx>= 0.0000 <Sy>= 0.0000 <Sz>= 0.5000 <S**2>= 0.7545 S= 0.5023
 <L.S>= 0.000000000000E+00
 KE= 3.053926027415D+02 PE=-1.184440923332D+03 EE= 3.387363789513D+02
 Annihilation of the first spin contaminant:
 S**2 before annihilation     0.7545,   after     0.7500
 Leave Link  502 at Tue Apr  9 02:10:17 2019, MaxMem=   671088640 cpu:            1072.6 elap:              53.7
 (Enter /shared/centos7/gaussian/g16/l801.exe)
 DoSCS=F DFT=T ScalE2(SS,OS)=  1.000000  1.000000
 Range of M.O.s used for correlation:     1   267
 NBasis=   267 NAE=    24 NBE=    23 NFC=     0 NFV=     0
 NROrb=    267 NOA=    24 NOB=    23 NVA=   243 NVB=   244

 **** Warning!!: The largest alpha MO coefficient is  0.49166268D+02


 **** Warning!!: The largest beta MO coefficient is  0.47273185D+02

 Leave Link  801 at Tue Apr  9 02:10:17 2019, MaxMem=   671088640 cpu:               0.4 elap:               0.0
 (Enter /shared/centos7/gaussian/g16/l1101.exe)
 Using compressed storage, NAtomX=    13.
 Will process     14 centers per pass.
 Leave Link 1101 at Tue Apr  9 02:10:17 2019, MaxMem=   671088640 cpu:               6.1 elap:               0.3
 (Enter /shared/centos7/gaussian/g16/l1102.exe)
 Symmetrizing basis deriv contribution to polar:
 IMax=3 JMax=2 DiffMx= 0.00D+00
 Leave Link 1102 at Tue Apr  9 02:10:17 2019, MaxMem=   671088640 cpu:               0.5 elap:               0.0
 (Enter /shared/centos7/gaussian/g16/l1110.exe)
 Forming Gx(P) for the SCF density, NAtomX=    13.
 Integral derivatives from FoFJK, PRISM(SPDF).
 Do as many integral derivatives as possible in FoFJK.
 G2DrvN: MDV=     671087568.
 G2DrvN: will do    14 centers at a time, making    1 passes.
 Calling FoFCou, ICntrl=  3107 FMM=F I1Cent=   0 AccDes= 0.00D+00.
 FoFJK:  IHMeth= 1 ICntrl=    3107 DoSepK=F KAlg= 0 I1Cent=           0 FoldK=F
 IRaf=         0 NMat=       1 IRICut=       1 DoRegI=T DoRafI=F ISym2E= 0 IDoP0=0 IntGTp=1.
 FoFCou: FMM=F IPFlag=           0 FMFlag=      100000 FMFlg1=           0
         NFxFlg=           0 DoJE=F BraDBF=F KetDBF=F FulRan=T
         wScrn=  0.000000 ICntrl=      3107 IOpCl=  1 I1Cent=           0 NGrid=           0
         NMat0=    1 NMatS0=      1 NMatT0=    0 NMatD0=    1 NMtDS0=    0 NMtDT0=    0
 Symmetry not used in FoFCou.
 End of G2Drv F.D. properties file   721 does not exist.
 End of G2Drv F.D. properties file   722 does not exist.
 End of G2Drv F.D. properties file   788 does not exist.
 Leave Link 1110 at Tue Apr  9 02:11:43 2019, MaxMem=   671088640 cpu:            1712.2 elap:              85.6
 (Enter /shared/centos7/gaussian/g16/l1002.exe)
 Minotr:  UHF open shell wavefunction.
          IDoAtm=1111111111111
          Direct CPHF calculation.
          Differentiating once with respect to nuclear coordinates.
          Requested convergence is 1.0D-08 RMS, and 1.0D-07 maximum.
          Secondary convergence is 1.0D-12 RMS, and 1.0D-12 maximum.
          NewPWx=T KeepS1=F KeepF1=F KeepIn=T MapXYZ=F SortEE=F KeepMc=T.
         3959 words used for storage of precomputed grid.
 Two-electron integrals replicated using symmetry.
          MDV=     671088640 using IRadAn=       1.
          Solving linear equations simultaneously, MaxMat=     380.
 FoF2E skips out because all densities are zero.
 CalDSu exits because no D1Ps are significant.
 FoFJK:  IHMeth= 1 ICntrl=       0 DoSepK=F KAlg= 0 I1Cent=           0 FoldK=F
 IRaf= 950000000 NMat=      39 IRICut=      97 DoRegI=T DoRafI=T ISym2E= 2 IDoP0=3 IntGTp=3.
 FoFCou: FMM=F IPFlag=           0 FMFlag=      100000 FMFlg1=           0
         NFxFlg=           0 DoJE=F BraDBF=F KetDBF=F FulRan=T
         wScrn=  0.000000 ICntrl=         0 IOpCl=  1 I1Cent=           0 NGrid=           0
         NMat0=   39 NMatS0=     39 NMatT0=    0 NMatD0=   39 NMtDS0=    0 NMtDT0=    0
 Integrals replicated using symmetry in FoFCou.
 Raff kept on since  93.57% of shell-pairs survive, threshold=   0.20 IRatSp=94.
          There are    42 degrees of freedom in the 1st order CPHF.  IDoFFX=6 NUNeed=     0.
     36 vectors produced by pass  0 Test12= 2.72D-14 2.38D-09 XBig12= 1.58D-01 8.47D-02.
 AX will form    36 AO Fock derivatives at one time.
     36 vectors produced by pass  1 Test12= 2.72D-14 2.38D-09 XBig12= 2.45D-02 3.31D-02.
     36 vectors produced by pass  2 Test12= 2.72D-14 2.38D-09 XBig12= 1.05D-03 7.82D-03.
     36 vectors produced by pass  3 Test12= 2.72D-14 2.38D-09 XBig12= 1.85D-05 6.37D-04.
     36 vectors produced by pass  4 Test12= 2.72D-14 2.38D-09 XBig12= 2.92D-07 6.88D-05.
     36 vectors produced by pass  5 Test12= 2.72D-14 2.38D-09 XBig12= 3.08D-09 6.20D-06.
     33 vectors produced by pass  6 Test12= 2.72D-14 2.38D-09 XBig12= 3.69D-11 6.15D-07.
     18 vectors produced by pass  7 Test12= 2.72D-14 2.38D-09 XBig12= 3.02D-13 6.54D-08.
      2 vectors produced by pass  8 Test12= 2.72D-14 2.38D-09 XBig12= 3.11D-15 4.87D-09.
 InvSVY:  IOpt=1 It=  1 EMax= 1.67D-15
 Solved reduced A of dimension   269 with    36 vectors.
 End of Minotr F.D. properties file   721 does not exist.
 End of Minotr F.D. properties file   722 does not exist.
 End of Minotr F.D. properties file   788 does not exist.
 Leave Link 1002 at Tue Apr  9 02:13:56 2019, MaxMem=   671088640 cpu:            2658.3 elap:             133.0
 (Enter /shared/centos7/gaussian/g16/l601.exe)
 Copying SCF densities to generalized density rwf, IOpCl= 1 IROHF=0.

 **********************************************************************

            Population analysis using the SCF density.

 **********************************************************************

 Orbital symmetries:
 Alpha Orbitals:
       Occupied  (A) (A) (A) (A) (A) (A) (A) (A) (A) (A) (A) (A)
                 (A) (A) (A) (A) (A) (A) (A) (A) (A) (A) (A) (A)
       Virtual   (A) (A) (A) (A) (A) (A) (A) (A) (A) (A) (A) (A)
                 (A) (A) (A) (A) (A) (A) (A) (A) (A) (A) (A) (A)
                 (A) (A) (A) (A) (A) (A) (A) (A) (A) (A) (A) (A)
                 (A) (A) (A) (A) (A) (A) (A) (A) (A) (A) (A) (A)
                 (A) (A) (A) (A) (A) (A) (A) (A) (A) (A) (A) (A)
                 (A) (A) (A) (A) (A) (A) (A) (A) (A) (A) (A) (A)
                 (A) (A) (A) (A) (A) (A) (A) (A) (A) (A) (A) (A)
                 (A) (A) (A) (A) (A) (A) (A) (A) (A) (A) (A) (A)
                 (A) (A) (A) (A) (A) (A) (A) (A) (A) (A) (A) (A)
                 (A) (A) (A) (A) (A) (A) (A) (A) (A) (A) (A) (A)
                 (A) (A) (A) (A) (A) (A) (A) (A) (A) (A) (A) (A)
                 (A) (A) (A) (A) (A) (A) (A) (A) (A) (A) (A) (A)
                 (A) (A) (A) (A) (A) (A) (A) (A) (A) (A) (A) (A)
                 (A) (A) (A) (A) (A) (A) (A) (A) (A) (A) (A) (A)
                 (A) (A) (A) (A) (A) (A) (A) (A) (A) (A) (A) (A)
                 (A) (A) (A) (A) (A) (A) (A) (A) (A) (A) (A) (A)
                 (A) (A) (A) (A) (A) (A) (A) (A) (A) (A) (A) (A)
                 (A) (A) (A) (A) (A) (A) (A) (A) (A) (A) (A) (A)
                 (A) (A) (A) (A) (A) (A) (A) (A) (A) (A) (A) (A)
                 (A) (A) (A) (A) (A) (A) (A) (A) (A) (A) (A) (A)
                 (A) (A) (A)
 Beta  Orbitals:
       Occupied  (A) (A) (A) (A) (A) (A) (A) (A) (A) (A) (A) (A)
                 (A) (A) (A) (A) (A) (A) (A) (A) (A) (A) (A)
       Virtual   (A) (A) (A) (A) (A) (A) (A) (A) (A) (A) (A) (A)
                 (A) (A) (A) (A) (A) (A) (A) (A) (A) (A) (A) (A)
                 (A) (A) (A) (A) (A) (A) (A) (A) (A) (A) (A) (A)
                 (A) (A) (A) (A) (A) (A) (A) (A) (A) (A) (A) (A)
                 (A) (A) (A) (A) (A) (A) (A) (A) (A) (A) (A) (A)
                 (A) (A) (A) (A) (A) (A) (A) (A) (A) (A) (A) (A)
                 (A) (A) (A) (A) (A) (A) (A) (A) (A) (A) (A) (A)
                 (A) (A) (A) (A) (A) (A) (A) (A) (A) (A) (A) (A)
                 (A) (A) (A) (A) (A) (A) (A) (A) (A) (A) (A) (A)
                 (A) (A) (A) (A) (A) (A) (A) (A) (A) (A) (A) (A)
                 (A) (A) (A) (A) (A) (A) (A) (A) (A) (A) (A) (A)
                 (A) (A) (A) (A) (A) (A) (A) (A) (A) (A) (A) (A)
                 (A) (A) (A) (A) (A) (A) (A) (A) (A) (A) (A) (A)
                 (A) (A) (A) (A) (A) (A) (A) (A) (A) (A) (A) (A)
                 (A) (A) (A) (A) (A) (A) (A) (A) (A) (A) (A) (A)
                 (A) (A) (A) (A) (A) (A) (A) (A) (A) (A) (A) (A)
                 (A) (A) (A) (A) (A) (A) (A) (A) (A) (A) (A) (A)
                 (A) (A) (A) (A) (A) (A) (A) (A) (A) (A) (A) (A)
                 (A) (A) (A) (A) (A) (A) (A) (A) (A) (A) (A) (A)
                 (A) (A) (A) (A) (A) (A) (A) (A) (A) (A) (A) (A)
                 (A) (A) (A) (A)
 The electronic state is 2-A.
 Alpha  occ. eigenvalues --  -19.69596 -19.62501 -10.69157 -10.61048 -10.56483
 Alpha  occ. eigenvalues --  -10.55083  -1.22669  -1.12577  -0.90954  -0.81080
 Alpha  occ. eigenvalues --   -0.73820  -0.65226  -0.59361  -0.57398  -0.55034
 Alpha  occ. eigenvalues --   -0.52233  -0.51005  -0.47389  -0.44745  -0.43973
 Alpha  occ. eigenvalues --   -0.42028  -0.40828  -0.36157  -0.28701
 Alpha virt. eigenvalues --    0.00518   0.02462   0.03052   0.03543   0.04239
 Alpha virt. eigenvalues --    0.05181   0.05960   0.06871   0.07844   0.08383
 Alpha virt. eigenvalues --    0.09335   0.10087   0.10773   0.12882   0.13708
 Alpha virt. eigenvalues --    0.15619   0.15846   0.17439   0.19811   0.20472
 Alpha virt. eigenvalues --    0.20970   0.22237   0.22625   0.24299   0.25461
 Alpha virt. eigenvalues --    0.26315   0.27365   0.28338   0.29327   0.29649
 Alpha virt. eigenvalues --    0.32108   0.33149   0.35127   0.36246   0.36394
 Alpha virt. eigenvalues --    0.40246   0.43705   0.43851   0.44983   0.46279
 Alpha virt. eigenvalues --    0.47555   0.49981   0.51128   0.51909   0.53661
 Alpha virt. eigenvalues --    0.55001   0.56633   0.57972   0.58516   0.59824
 Alpha virt. eigenvalues --    0.60681   0.61803   0.63354   0.65901   0.66510
 Alpha virt. eigenvalues --    0.67369   0.69624   0.71142   0.74383   0.78588
 Alpha virt. eigenvalues --    0.79988   0.82651   0.84140   0.86616   0.89386
 Alpha virt. eigenvalues --    0.90933   0.92089   0.93784   0.97297   0.98936
 Alpha virt. eigenvalues --    1.01677   1.05712   1.06114   1.08260   1.09566
 Alpha virt. eigenvalues --    1.10005   1.12276   1.14481   1.15517   1.15819
 Alpha virt. eigenvalues --    1.17907   1.18867   1.19667   1.20988   1.25603
 Alpha virt. eigenvalues --    1.26869   1.29287   1.29376   1.30147   1.32050
 Alpha virt. eigenvalues --    1.33253   1.35768   1.36916   1.39317   1.40215
 Alpha virt. eigenvalues --    1.43439   1.45940   1.47668   1.48132   1.52180
 Alpha virt. eigenvalues --    1.52494   1.55564   1.57098   1.58797   1.60738
 Alpha virt. eigenvalues --    1.63404   1.66726   1.67945   1.69791   1.77680
 Alpha virt. eigenvalues --    1.80613   1.87361   2.00689   2.04950   2.14354
 Alpha virt. eigenvalues --    2.27207   2.28214   2.39687   2.42467   2.43274
 Alpha virt. eigenvalues --    2.49697   2.50764   2.55283   2.59002   2.68412
 Alpha virt. eigenvalues --    2.70913   2.73638   2.76135   2.78788   2.82905
 Alpha virt. eigenvalues --    2.86269   2.88220   2.94252   2.95893   2.96198
 Alpha virt. eigenvalues --    2.98287   3.00284   3.03698   3.04688   3.06285
 Alpha virt. eigenvalues --    3.07613   3.11095   3.13041   3.14519   3.15931
 Alpha virt. eigenvalues --    3.19172   3.20452   3.21576   3.23659   3.24118
 Alpha virt. eigenvalues --    3.26008   3.28440   3.30676   3.31007   3.34117
 Alpha virt. eigenvalues --    3.38235   3.40637   3.43268   3.46934   3.49445
 Alpha virt. eigenvalues --    3.50609   3.52247   3.56917   3.59134   3.59921
 Alpha virt. eigenvalues --    3.65511   3.68731   3.72426   3.72613   3.77680
 Alpha virt. eigenvalues --    3.80547   3.84162   3.85038   3.87252   3.89736
 Alpha virt. eigenvalues --    3.95038   3.97523   3.98557   4.01815   4.06064
 Alpha virt. eigenvalues --    4.08986   4.10122   4.13548   4.17580   4.18778
 Alpha virt. eigenvalues --    4.22074   4.23686   4.24784   4.25675   4.30131
 Alpha virt. eigenvalues --    4.32575   4.35300   4.38148   4.42967   4.45032
 Alpha virt. eigenvalues --    4.51797   4.62235   4.64933   4.72470   4.83197
 Alpha virt. eigenvalues --    5.02924   5.09156   5.10167   5.13323   5.16037
 Alpha virt. eigenvalues --    5.19689   5.21469   5.26153   5.33489   5.37787
 Alpha virt. eigenvalues --    5.41326   5.42206   5.45559   5.46281   5.50109
 Alpha virt. eigenvalues --    5.51830   5.57193   5.60053   5.64493   5.68500
 Alpha virt. eigenvalues --    5.81175   5.91095   6.13662   6.36514   6.50800
 Alpha virt. eigenvalues --    6.76768   6.83111   6.91057   6.95147   7.04977
 Alpha virt. eigenvalues --    7.15503   7.18203   7.25985   7.48519   7.59816
 Alpha virt. eigenvalues --    7.72520   7.75208  24.20306  24.22224  24.41721
 Alpha virt. eigenvalues --   24.64039  50.10419  50.19794
  Beta  occ. eigenvalues --  -19.69458 -19.62469 -10.69148 -10.60170 -10.56487
  Beta  occ. eigenvalues --  -10.55079  -1.22077  -1.12312  -0.90788  -0.79298
  Beta  occ. eigenvalues --   -0.72775  -0.64150  -0.59047  -0.56842  -0.53696
  Beta  occ. eigenvalues --   -0.52069  -0.50041  -0.46508  -0.44277  -0.43661
  Beta  occ. eigenvalues --   -0.41938  -0.39740  -0.36048
  Beta virt. eigenvalues --   -0.04592   0.00827   0.02116   0.03066   0.04064
  Beta virt. eigenvalues --    0.04216   0.05271   0.05982   0.07376   0.07941
  Beta virt. eigenvalues --    0.08409   0.08921   0.10075   0.11779   0.12690
  Beta virt. eigenvalues --    0.13359   0.15145   0.15901   0.17269   0.19869
  Beta virt. eigenvalues --    0.21092   0.21354   0.22304   0.22794   0.24313
  Beta virt. eigenvalues --    0.25790   0.26494   0.27041   0.28311   0.29234
  Beta virt. eigenvalues --    0.29757   0.31989   0.33198   0.35148   0.35977
  Beta virt. eigenvalues --    0.36529   0.40232   0.43603   0.43967   0.45013
  Beta virt. eigenvalues --    0.46347   0.47513   0.50590   0.50915   0.52270
  Beta virt. eigenvalues --    0.53564   0.55057   0.56892   0.58099   0.58826
  Beta virt. eigenvalues --    0.60384   0.60604   0.62152   0.63543   0.66126
  Beta virt. eigenvalues --    0.66628   0.67311   0.69974   0.70735   0.74519
  Beta virt. eigenvalues --    0.78318   0.79981   0.82958   0.84098   0.86283
  Beta virt. eigenvalues --    0.89370   0.90981   0.91960   0.93866   0.96955
  Beta virt. eigenvalues --    0.98645   1.01687   1.05167   1.06179   1.08120
  Beta virt. eigenvalues --    1.09522   1.10235   1.12274   1.14470   1.15534
  Beta virt. eigenvalues --    1.15794   1.17882   1.18735   1.19665   1.21038
  Beta virt. eigenvalues --    1.25730   1.26963   1.29262   1.29499   1.30164
  Beta virt. eigenvalues --    1.32064   1.33242   1.35839   1.36810   1.39966
  Beta virt. eigenvalues --    1.40167   1.43474   1.45937   1.47724   1.48200
  Beta virt. eigenvalues --    1.52483   1.53101   1.55553   1.57463   1.58749
  Beta virt. eigenvalues --    1.60822   1.63694   1.67186   1.67980   1.69899
  Beta virt. eigenvalues --    1.77914   1.80910   1.87827   2.00771   2.05166
  Beta virt. eigenvalues --    2.14667   2.27945   2.28610   2.40229   2.43287
  Beta virt. eigenvalues --    2.44212   2.50085   2.51003   2.55605   2.59303
  Beta virt. eigenvalues --    2.68830   2.71220   2.73828   2.76517   2.78983
  Beta virt. eigenvalues --    2.83664   2.88638   2.90768   2.95753   2.97239
  Beta virt. eigenvalues --    2.99421   3.00453   3.04216   3.04971   3.06440
  Beta virt. eigenvalues --    3.08035   3.09625   3.12267   3.14911   3.16193
  Beta virt. eigenvalues --    3.16564   3.20175   3.21580   3.24128   3.25162
  Beta virt. eigenvalues --    3.26523   3.27277   3.29596   3.31510   3.34675
  Beta virt. eigenvalues --    3.34821   3.40995   3.41956   3.44999   3.48121
  Beta virt. eigenvalues --    3.50276   3.52933   3.55155   3.57753   3.59987
  Beta virt. eigenvalues --    3.61623   3.66899   3.69579   3.72560   3.72963
  Beta virt. eigenvalues --    3.78566   3.81203   3.85027   3.87727   3.88703
  Beta virt. eigenvalues --    3.92374   3.95792   3.97711   3.98649   4.02319
  Beta virt. eigenvalues --    4.07630   4.10091   4.12602   4.14585   4.18603
  Beta virt. eigenvalues --    4.19231   4.24510   4.24854   4.25471   4.27020
  Beta virt. eigenvalues --    4.30183   4.32640   4.35834   4.38341   4.43240
  Beta virt. eigenvalues --    4.47370   4.51993   4.62418   4.64983   4.72545
  Beta virt. eigenvalues --    4.83337   5.06390   5.09296   5.11131   5.14215
  Beta virt. eigenvalues --    5.17218   5.19970   5.22020   5.28267   5.34179
  Beta virt. eigenvalues --    5.38537   5.41506   5.45258   5.46229   5.48421
  Beta virt. eigenvalues --    5.50312   5.51995   5.57611   5.60793   5.65024
  Beta virt. eigenvalues --    5.68866   5.81836   5.91911   6.13867   6.37008
  Beta virt. eigenvalues --    6.51234   6.76958   6.83431   6.91361   6.95271
  Beta virt. eigenvalues --    7.05212   7.15765   7.18449   7.26275   7.48697
  Beta virt. eigenvalues --    7.59907   7.72596   7.75210  24.20469  24.23585
  Beta virt. eigenvalues --   24.41725  24.64115  50.10311  50.19743
          Condensed to atoms (all electrons):
               1          2          3          4          5          6
     1  O    8.037467  -0.081657  -0.093581  -0.044747   0.238242   0.124658
     2  O   -0.081657   8.100603   0.005170  -0.036727   0.438329  -0.053315
     3  C   -0.093581   0.005170   5.960678   0.050963  -0.321445  -0.135663
     4  C   -0.044747  -0.036727   0.050963   5.269181  -0.100348  -0.003181
     5  C    0.238242   0.438329  -0.321445  -0.100348   5.771178  -0.048348
     6  C    0.124658  -0.053315  -0.135663  -0.003181  -0.048348   5.474865
     7  H   -0.006667   0.005110   0.427356  -0.038904  -0.042478   0.003786
     8  H    0.005783  -0.011464   0.463579  -0.032049  -0.064683  -0.001580
     9  H    0.001842   0.001833  -0.062115   0.427085  -0.011050   0.000931
    10  H   -0.000258  -0.000690  -0.027227   0.407238   0.005685  -0.000259
    11  H   -0.001901  -0.000082  -0.022536   0.417831  -0.008826  -0.000368
    12  H   -0.044002   0.003197   0.009138   0.000032   0.003920   0.402195
    13  H   -0.026928  -0.009093   0.001645   0.000102   0.001208   0.402582
               7          8          9         10         11         12
     1  O   -0.006667   0.005783   0.001842  -0.000258  -0.001901  -0.044002
     2  O    0.005110  -0.011464   0.001833  -0.000690  -0.000082   0.003197
     3  C    0.427356   0.463579  -0.062115  -0.027227  -0.022536   0.009138
     4  C   -0.038904  -0.032049   0.427085   0.407238   0.417831   0.000032
     5  C   -0.042478  -0.064683  -0.011050   0.005685  -0.008826   0.003920
     6  C    0.003786  -0.001580   0.000931  -0.000259  -0.000368   0.402195
     7  H    0.526092  -0.031480   0.005252   0.003522  -0.015774  -0.000063
     8  H   -0.031480   0.512242   0.004059  -0.015906   0.004746   0.000008
     9  H    0.005252   0.004059   0.547596  -0.026301  -0.029595   0.000043
    10  H    0.003522  -0.015906  -0.026301   0.556477  -0.030598  -0.000002
    11  H   -0.015774   0.004746  -0.029595  -0.030598   0.549137  -0.000001
    12  H   -0.000063   0.000008   0.000043  -0.000002  -0.000001   0.499995
    13  H   -0.000046   0.000016  -0.000070   0.000002   0.000002  -0.030393
              13
     1  O   -0.026928
     2  O   -0.009093
     3  C    0.001645
     4  C    0.000102
     5  C    0.001208
     6  C    0.402582
     7  H   -0.000046
     8  H    0.000016
     9  H   -0.000070
    10  H    0.000002
    11  H    0.000002
    12  H   -0.030393
    13  H    0.485110
          Atomic-Atomic Spin Densities.
               1          2          3          4          5          6
     1  O    0.106271  -0.003998   0.006907  -0.000736   0.020187  -0.153096
     2  O   -0.003998   0.019323   0.000098   0.000327  -0.003499   0.007880
     3  C    0.006907   0.000098  -0.006953   0.011805  -0.009679  -0.016433
     4  C   -0.000736   0.000327   0.011805   0.010768  -0.017600  -0.001374
     5  C    0.020187  -0.003499  -0.009679  -0.017600   0.050908  -0.003406
     6  C   -0.153096   0.007880  -0.016433  -0.001374  -0.003406   1.211176
     7  H    0.000209   0.000081   0.001891  -0.001029  -0.000983   0.000271
     8  H   -0.000161   0.000035  -0.001311  -0.000691   0.001671   0.000034
     9  H   -0.000625   0.000292   0.000480   0.000760  -0.001466   0.000180
    10  H    0.000146  -0.000136  -0.000301  -0.001200   0.001344  -0.000010
    11  H   -0.000113   0.000015  -0.000339  -0.000354   0.000465  -0.000012
    12  H    0.004841  -0.000031   0.003094   0.000289  -0.001977  -0.020289
    13  H    0.001331   0.004984   0.002257   0.000399  -0.004124  -0.017275
               7          8          9         10         11         12
     1  O    0.000209  -0.000161  -0.000625   0.000146  -0.000113   0.004841
     2  O    0.000081   0.000035   0.000292  -0.000136   0.000015  -0.000031
     3  C    0.001891  -0.001311   0.000480  -0.000301  -0.000339   0.003094
     4  C   -0.001029  -0.000691   0.000760  -0.001200  -0.000354   0.000289
     5  C   -0.000983   0.001671  -0.001466   0.001344   0.000465  -0.001977
     6  C    0.000271   0.000034   0.000180  -0.000010  -0.000012  -0.020289
     7  H   -0.000517   0.000168   0.000014  -0.000042   0.000058  -0.000001
     8  H    0.000168   0.000828  -0.000035   0.000159  -0.000033  -0.000003
     9  H    0.000014  -0.000035   0.000230  -0.000205   0.000115   0.000009
    10  H   -0.000042   0.000159  -0.000205   0.001020  -0.000198  -0.000001
    11  H    0.000058  -0.000033   0.000115  -0.000198   0.000235  -0.000000
    12  H   -0.000001  -0.000003   0.000009  -0.000001  -0.000000  -0.011722
    13  H   -0.000017  -0.000017   0.000027  -0.000003  -0.000000   0.006301
              13
     1  O    0.001331
     2  O    0.004984
     3  C    0.002257
     4  C    0.000399
     5  C   -0.004124
     6  C   -0.017275
     7  H   -0.000017
     8  H   -0.000017
     9  H    0.000027
    10  H   -0.000003
    11  H   -0.000000
    12  H    0.006301
    13  H   -0.014204
 Mulliken charges and spin densities:
               1          2
     1  O   -0.108250  -0.018838
     2  O   -0.361215   0.025371
     3  C   -0.255962  -0.008484
     4  C   -0.316477   0.001364
     5  C    0.138617   0.031841
     6  C   -0.166303   1.007646
     7  H    0.164294   0.000102
     8  H    0.166729   0.000644
     9  H    0.140489  -0.000223
    10  H    0.128317   0.000572
    11  H    0.137965  -0.000162
    12  H    0.155933  -0.019491
    13  H    0.175862  -0.020341
 Sum of Mulliken charges =  -0.00000   1.00000
 Mulliken charges and spin densities with hydrogens summed into heavy atoms:
               1          2
     1  O   -0.108250  -0.018838
     2  O   -0.361215   0.025371
     3  C    0.075062  -0.007739
     4  C    0.090294   0.001551
     5  C    0.138617   0.031841
     6  C    0.165492   0.967815
 APT charges:
               1
     1  O   -0.095022
     2  O   -0.311217
     3  C   -0.877480
     4  C   -1.169243
     5  C    0.327233
     6  C   -0.858095
     7  H    0.393326
     8  H    0.478537
     9  H    0.207558
    10  H    0.528033
    11  H    0.443541
    12  H    0.604686
    13  H    0.328143
 Sum of APT charges =  -0.00000
 APT charges with hydrogens summed into heavy atoms:
               1
     1  O   -0.095022
     2  O   -0.311217
     3  C   -0.005617
     4  C    0.009889
     5  C    0.327233
     6  C    0.074734
 Electronic spatial extent (au):  <R**2>=            646.2310
 Charge=             -0.0000 electrons
 Dipole moment (field-independent basis, Debye):
    X=              1.2785    Y=             -1.9964    Z=              0.0434  Tot=              2.3711
 Quadrupole moment (field-independent basis, Debye-Ang):
   XX=            -31.7978   YY=            -41.3083   ZZ=            -36.1231
   XY=              1.9359   XZ=             -2.6323   YZ=             -1.0245
 Traceless Quadrupole moment (field-independent basis, Debye-Ang):
   XX=              4.6119   YY=             -4.8986   ZZ=              0.2866
   XY=              1.9359   XZ=             -2.6323   YZ=             -1.0245
 Octapole moment (field-independent basis, Debye-Ang**2):
  XXX=             -4.6001  YYY=             -7.0840  ZZZ=             -0.6499  XYY=              0.8064
  XXY=             -3.1556  XXZ=              4.5547  XZZ=             -0.0902  YZZ=              0.9920
  YYZ=             -1.1741  XYZ=              0.5538
 Hexadecapole moment (field-independent basis, Debye-Ang**3):
 XXXX=           -579.2027 YYYY=           -180.7303 ZZZZ=            -92.7387 XXXY=             18.6297
 XXXZ=            -17.2648 YYYX=              5.3017 YYYZ=             -0.5719 ZZZX=             -2.8899
 ZZZY=              2.3603 XXYY=           -118.2556 XXZZ=           -117.8356 YYZZ=            -43.9645
 XXYZ=             -1.0027 YYXZ=             -4.2044 ZZXY=             -0.9338
 N-N= 2.333279977266D+02 E-N=-1.184440924099D+03  KE= 3.053926027415D+02
  Exact polarizability:   0.000   0.000   0.000   0.000   0.000   0.000
 Approx polarizability:  67.838   0.930  70.748  -2.653   3.690  55.716
                          Isotropic Fermi Contact Couplings
        Atom                 a.u.       MegaHertz       Gauss      10(-4) cm-1
     1  O(17)              0.01577      -9.56173      -3.41186      -3.18945
     2  O(17)              0.00244      -1.48110      -0.52849      -0.49404
     3  C(13)             -0.00223      -2.50421      -0.89357      -0.83532
     4  C(13)              0.00288       3.23737       1.15517       1.07987
     5  C(13)              0.00294       3.30075       1.17779       1.10101
     6  C(13)              0.33896     381.05058     135.96832     127.10479
     7  H(1)               0.00019       0.85897       0.30650       0.28652
     8  H(1)               0.00027       1.21403       0.43320       0.40496
     9  H(1)              -0.00004      -0.19066      -0.06803      -0.06360
    10  H(1)               0.00014       0.63948       0.22818       0.21331
    11  H(1)              -0.00005      -0.22363      -0.07980      -0.07460
    12  H(1)              -0.00526     -23.50987      -8.38891      -7.84205
    13  H(1)              -0.00548     -24.47299      -8.73257      -8.16331
 --------------------------------------------------------
       Center         ----  Spin Dipole Couplings  ----
                      3XX-RR        3YY-RR        3ZZ-RR
 --------------------------------------------------------
     1   Atom       -0.104381     -0.102050      0.206431
     2   Atom       -0.045482     -0.032436      0.077918
     3   Atom        0.003749     -0.002878     -0.000871
     4   Atom        0.004406     -0.002818     -0.001589
     5   Atom       -0.001942     -0.015485      0.017426
     6   Atom       -0.295193     -0.329900      0.625093
     7   Atom        0.004320     -0.002738     -0.001582
     8   Atom        0.002902     -0.001335     -0.001567
     9   Atom        0.003169     -0.002333     -0.000836
    10   Atom        0.001953     -0.000945     -0.001008
    11   Atom        0.002338     -0.000925     -0.001413
    12   Atom       -0.017699      0.035156     -0.017457
    13   Atom       -0.054568      0.029888      0.024680
 --------------------------------------------------------
                        XY            XZ            YZ
 --------------------------------------------------------
     1   Atom       -0.061577      0.250246     -0.177386
     2   Atom        0.007766      0.004224     -0.027378
     3   Atom        0.001056     -0.001125     -0.000301
     4   Atom       -0.000715      0.002407     -0.000474
     5   Atom        0.006631      0.007942     -0.008380
     6   Atom       -0.201450      0.514451     -0.459409
     7   Atom       -0.000984     -0.002931      0.000292
     8   Atom        0.001503     -0.001300     -0.000300
     9   Atom        0.000015      0.002276     -0.000051
    10   Atom        0.000393      0.000395      0.000022
    11   Atom       -0.001107      0.000370     -0.000133
    12   Atom        0.052918      0.006658     -0.031988
    13   Atom       -0.011851      0.012163      0.045590
 --------------------------------------------------------


 ---------------------------------------------------------------------------------
              Anisotropic Spin Dipole Couplings in Principal Axis System
 ---------------------------------------------------------------------------------

       Atom             a.u.   MegaHertz   Gauss  10(-4) cm-1        Axes

              Baa    -0.2545    18.418     6.572     6.144  0.7757 -0.3197 -0.5441
     1 O(17)  Bbb    -0.1578    11.416     4.074     3.808  0.4500  0.8847  0.1217
              Bcc     0.4123   -29.835   -10.646    -9.952  0.4425 -0.3393  0.8301
 
              Baa    -0.0513     3.715     1.326     1.239  0.8258 -0.5456 -0.1426
     2 O(17)  Bbb    -0.0330     2.391     0.853     0.797  0.5637  0.8067  0.1776
              Bcc     0.0844    -6.106    -2.179    -2.037  0.0181 -0.2270  0.9737
 
              Baa    -0.0030    -0.409    -0.146    -0.137 -0.1431  0.9877  0.0624
     3 C(13)  Bbb    -0.0011    -0.151    -0.054    -0.051  0.2305 -0.0281  0.9727
              Bcc     0.0042     0.561     0.200     0.187  0.9625  0.1535 -0.2237
 
              Baa    -0.0030    -0.400    -0.143    -0.133 -0.0299  0.9295  0.3677
     4 C(13)  Bbb    -0.0024    -0.316    -0.113    -0.105 -0.3466 -0.3547  0.8684
              Bcc     0.0053     0.716     0.256     0.239  0.9375 -0.1015  0.3327
 
              Baa    -0.0212    -2.851    -1.017    -0.951 -0.4110  0.8698  0.2729
     5 C(13)  Bbb     0.0000     0.004     0.001     0.001  0.8685  0.4646 -0.1727
              Bcc     0.0212     2.848     1.016     0.950  0.2770 -0.1660  0.9464
 
              Baa    -0.5262   -70.612   -25.196   -23.554  0.8433 -0.2491 -0.4762
     6 C(13)  Bbb    -0.5128   -68.810   -24.553   -22.952  0.3774  0.9053  0.1949
              Bcc     1.0390   139.421    49.749    46.506  0.3826 -0.3441  0.8575
 
              Baa    -0.0029    -1.567    -0.559    -0.523  0.3116  0.8077  0.5005
     7 H(1)   Bbb    -0.0027    -1.449    -0.517    -0.483  0.2440 -0.5770  0.7794
              Bcc     0.0057     3.016     1.076     1.006  0.9183 -0.1208 -0.3769
 
              Baa    -0.0020    -1.052    -0.376    -0.351  0.3596 -0.4682  0.8071
     8 H(1)   Bbb    -0.0017    -0.930    -0.332    -0.310 -0.1196  0.8347  0.5375
              Bcc     0.0037     1.983     0.708     0.661  0.9254  0.2898 -0.2442
 
              Baa    -0.0023    -1.248    -0.445    -0.416 -0.0444  0.9939  0.1007
     9 H(1)   Bbb    -0.0019    -0.992    -0.354    -0.331 -0.4095 -0.1100  0.9056
              Bcc     0.0042     2.240     0.799     0.747  0.9112 -0.0011  0.4119
 
              Baa    -0.0011    -0.572    -0.204    -0.191 -0.1669  0.3618  0.9172
    10 H(1)   Bbb    -0.0010    -0.525    -0.187    -0.175 -0.0727  0.9232 -0.3774
              Bcc     0.0021     1.097     0.391     0.366  0.9833  0.1297  0.1277
 
              Baa    -0.0015    -0.775    -0.277    -0.258 -0.0615  0.1208  0.9908
    11 H(1)   Bbb    -0.0013    -0.674    -0.240    -0.225  0.3016  0.9485 -0.0969
              Bcc     0.0027     1.449     0.517     0.483  0.9514 -0.2929  0.0948
 
              Baa    -0.0628   -33.483   -11.948   -11.169  0.6972 -0.5333 -0.4791
    12 H(1)   Bbb    -0.0115    -6.153    -2.196    -2.052  0.5438 -0.0421  0.8382
              Bcc     0.0743    39.636    14.143    13.221  0.4672  0.8449 -0.2607
 
              Baa    -0.0613   -32.700   -11.668   -10.908  0.9298  0.2540 -0.2662
    13 H(1)   Bbb    -0.0117    -6.222    -2.220    -2.075  0.3680 -0.6376  0.6768
              Bcc     0.0729    38.922    13.888    12.983 -0.0021  0.7273  0.6864
 

 ---------------------------------------------------------------------------------

 No NMR shielding tensors so no spin-rotation constants.
 Leave Link  601 at Tue Apr  9 02:13:57 2019, MaxMem=   671088640 cpu:               8.7 elap:               0.5
 (Enter /shared/centos7/gaussian/g16/l701.exe)
 SCFChk:  SCF convergence  8.86D-09 required  1.00D-08
 ... and contract with generalized density number  0.
 Compute integral second derivatives.
 Entering OneElI...
 Calculate overlap and kinetic energy integrals
    NBasis = 297  MinDer = 2  MaxDer = 2
 Requested accuracy = 0.1000D-12
 PrmmSu-InSpLW:  IPartL=    0 NPrtUS=   20 NPrtUL=    1 DoSpLW=F IThBeg=    0 IThEnd=   19 NThAct=   20.
 PrsmSu:  NPrtUS=  20 ThrOK=T IAlg=1 NPAlg=1 LenDen=           0 ISkipM=0 DoSpLW=F IThBeg=    0 IThEnd=   19.
 Prism:   IPart=     0 DynPar=F LinDyn=F Incr=           1.
 PRISM was handed    33455406 working-precision words and  3475 shell-pairs
 PRISM was handed    33455406 working-precision words and  3475 shell-pairs
 PRISM was handed    33455406 working-precision words and  3475 shell-pairs
 PRISM was handed    33455406 working-precision words and  3475 shell-pairs
 PRISM was handed    33455406 working-precision words and  3475 shell-pairs
 PRISM was handed    33455406 working-precision words and  3475 shell-pairs
 PRISM was handed    33455406 working-precision words and  3475 shell-pairs
 PRISM was handed    33455406 working-precision words and  3475 shell-pairs
 PRISM was handed    33455406 working-precision words and  3475 shell-pairs
 PRISM was handed    33455406 working-precision words and  3475 shell-pairs
 PRISM was handed    33455406 working-precision words and  3475 shell-pairs
 PRISM was handed    33455406 working-precision words and  3475 shell-pairs
 PRISM was handed    33455406 working-precision words and  3475 shell-pairs
 PRISM was handed    33455406 working-precision words and  3475 shell-pairs
 PRISM was handed    33455406 working-precision words and  3475 shell-pairs
 PRISM was handed    33455406 working-precision words and  3475 shell-pairs
 PRISM was handed    33455406 working-precision words and  3475 shell-pairs
 PRISM was handed    33455406 working-precision words and  3475 shell-pairs
 PRISM was handed    33455406 working-precision words and  3475 shell-pairs
 PRISM was handed    33455406 working-precision words and  3475 shell-pairs
 IPart=  2 NShTot=         196 NBatch=          51 AvBLen=         3.8
 IPart=  5 NShTot=         184 NBatch=          42 AvBLen=         4.4
 IPart=  4 NShTot=         188 NBatch=          46 AvBLen=         4.1
 IPart=  3 NShTot=         194 NBatch=          50 AvBLen=         3.9
 IPart=  1 NShTot=         200 NBatch=          54 AvBLen=         3.7
 IPart= 11 NShTot=         168 NBatch=          32 AvBLen=         5.3
 IPart=  9 NShTot=         171 NBatch=          34 AvBLen=         5.0
 IPart=  8 NShTot=         173 NBatch=          36 AvBLen=         4.8
 IPart= 10 NShTot=         170 NBatch=          33 AvBLen=         5.2
 IPart=  7 NShTot=         179 NBatch=          37 AvBLen=         4.8
 IPart= 12 NShTot=         165 NBatch=          31 AvBLen=         5.3
 IPart= 13 NShTot=         164 NBatch=          31 AvBLen=         5.3
 IPart=  0 NShTot=         207 NBatch=          59 AvBLen=         3.5
 IPart= 14 NShTot=         163 NBatch=          31 AvBLen=         5.3
 IPart= 15 NShTot=         160 NBatch=          30 AvBLen=         5.3
 IPart=  6 NShTot=         180 NBatch=          38 AvBLen=         4.7
 IPart= 16 NShTot=         156 NBatch=          30 AvBLen=         5.2
 IPart= 18 NShTot=         153 NBatch=          30 AvBLen=         5.1
 IPart= 17 NShTot=         155 NBatch=          30 AvBLen=         5.2
 IPart= 19 NShTot=         149 NBatch=          30 AvBLen=         5.0
 PrSmSu:  NxtVal=             21.
 Entering OneElI...
 Calculate potential energy integrals
    NBasis = 297  MinDer = 2  MaxDer = 2
 Requested accuracy = 0.1000D-12
 PrmmSu-InSpLW:  IPartL=    0 NPrtUS=   20 NPrtUL=    1 DoSpLW=F IThBeg=    0 IThEnd=   19 NThAct=   20.
 PrsmSu:  NPrtUS=  20 ThrOK=T IAlg=1 NPAlg=1 LenDen=           0 ISkipM=0 DoSpLW=F IThBeg=    0 IThEnd=   19.
 Prism:   IPart=     0 DynPar=F LinDyn=F Incr=          21.
 PRISM was handed    33469574 working-precision words and  3233 shell-pairs
 PRISM was handed    33469574 working-precision words and  3233 shell-pairs
 PRISM was handed    33469574 working-precision words and  3233 shell-pairs
 PRISM was handed    33469574 working-precision words and  3233 shell-pairs
 PRISM was handed    33469574 working-precision words and  3233 shell-pairs
 PRISM was handed    33469574 working-precision words and  3233 shell-pairs
 PRISM was handed    33469574 working-precision words and  3233 shell-pairs
 PRISM was handed    33469574 working-precision words and  3233 shell-pairs
 PRISM was handed    33469574 working-precision words and  3233 shell-pairs
 PRISM was handed    33469574 working-precision words and  3233 shell-pairs
 PRISM was handed    33469574 working-precision words and  3233 shell-pairs
 PRISM was handed    33469574 working-precision words and  3233 shell-pairs
 PRISM was handed    33469574 working-precision words and  3233 shell-pairs
 PRISM was handed    33469574 working-precision words and  3233 shell-pairs
 PRISM was handed    33469574 working-precision words and  3233 shell-pairs
 PRISM was handed    33469574 working-precision words and  3233 shell-pairs
 PRISM was handed    33469574 working-precision words and  3233 shell-pairs
 PRISM was handed    33469574 working-precision words and  3233 shell-pairs
 PRISM was handed    33469574 working-precision words and  3233 shell-pairs
 PRISM was handed    33469574 working-precision words and  3233 shell-pairs
 IPart= 10 NShTot=        2041 NBatch=         157 AvBLen=        13.0
 IPart=  9 NShTot=        2106 NBatch=         162 AvBLen=        13.0
 IPart=  5 NShTot=        2210 NBatch=         170 AvBLen=        13.0
 IPart=  2 NShTot=        2366 NBatch=         182 AvBLen=        13.0
 IPart=  3 NShTot=        2340 NBatch=         180 AvBLen=        13.0
 IPart=  4 NShTot=        2275 NBatch=         175 AvBLen=        13.0
 IPart= 11 NShTot=        2015 NBatch=         155 AvBLen=        13.0
 IPart=  1 NShTot=        2470 NBatch=         190 AvBLen=        13.0
 IPart=  7 NShTot=        2145 NBatch=         165 AvBLen=        13.0
 IPart=  8 NShTot=        2145 NBatch=         165 AvBLen=        13.0
 IPart= 13 NShTot=        1937 NBatch=         149 AvBLen=        13.0
 IPart=  0 NShTot=        2522 NBatch=         194 AvBLen=        13.0
 IPart= 12 NShTot=        1963 NBatch=         151 AvBLen=        13.0
 IPart= 16 NShTot=        1898 NBatch=         146 AvBLen=        13.0
 IPart= 17 NShTot=        1885 NBatch=         145 AvBLen=        13.0
 IPart= 14 NShTot=        1924 NBatch=         148 AvBLen=        13.0
 IPart= 15 NShTot=        1898 NBatch=         146 AvBLen=        13.0
 IPart= 18 NShTot=        1872 NBatch=         144 AvBLen=        13.0
 IPart= 19 NShTot=        1846 NBatch=         142 AvBLen=        13.0
 IPart=  6 NShTot=        2171 NBatch=         167 AvBLen=        13.0
 PrSmSu:  NxtVal=            421.
 Polarizability after L701:
                1             2             3 
      1  0.000000D+00
      2  0.000000D+00  0.000000D+00
      3  0.000000D+00  0.000000D+00  0.000000D+00
 Dipole Derivatives after L701:
                 1             2             3             4             5 
      1   0.841579D-01 -0.243714D-01 -0.796916D-01 -0.315983D+00 -0.606577D-01
      2   0.470276D-02 -0.124468D+00  0.566353D-01 -0.112927D+00 -0.792739D-01
      3  -0.616850D-01  0.798912D-01 -0.244757D+00 -0.496103D-01  0.278384D-02
                 6             7             8             9            10 
      1  -0.119435D+00 -0.765321D+00 -0.169665D+00  0.145764D+01 -0.169567D+01
      2   0.195459D+00 -0.503261D-01 -0.813699D+00 -0.146777D+00  0.784878D-01
      3  -0.538395D+00  0.348127D+00 -0.109652D+00 -0.105342D+01  0.102183D+00
                11            12            13            14            15 
      1   0.460099D+00 -0.110652D+01  0.526336D+00 -0.392259D-01 -0.705775D-01
      2  -0.929020D+00  0.159863D+00 -0.644654D-01 -0.227312D+00 -0.285071D+00
      3  -0.167568D-02 -0.883042D+00 -0.128750D+00 -0.820503D-01  0.682676D+00
                16            17            18            19            20 
      1  -0.134667D+01 -0.362356D+00  0.120066D+01  0.188379D+00 -0.416405D+00
      2  -0.379258D+00 -0.823171D+00  0.351249D-01 -0.168428D-01  0.431287D+00
      3   0.227163D+00 -0.159635D+00 -0.404449D+00 -0.132787D-01  0.434014D+00
                21            22            23            24            25 
      1  -0.381638D+00  0.594197D+00  0.615829D+00 -0.323095D+00 -0.175487D+00
      2   0.226485D+00  0.211000D+00  0.489107D+00 -0.162235D+00  0.600066D-01
      3   0.560313D+00 -0.232196D+00 -0.363782D+00  0.352306D+00 -0.337648D+00
                26            27            28            29            30 
      1   0.264693D-02  0.585485D+00  0.123875D+01  0.764174D+00  0.961136D-01
      2   0.107550D+00 -0.133353D+00  0.888120D-01  0.201618D+00 -0.235216D-01
      3   0.313913D-01  0.690613D+00  0.225965D+00  0.123087D+00  0.143732D+00
                31            32            33            34            35 
      1   0.450403D+00 -0.101712D+01 -0.108945D+00  0.952868D+00  0.111827D+01
      2  -0.195148D+00  0.752912D+00  0.107186D+00  0.363782D+00  0.698117D+00
      3   0.695233D-01 -0.137424D+00  0.127308D+00 -0.115883D+00 -0.139730D+00
                36            37            38            39 
      1  -0.369362D+00  0.264034D+00 -0.871212D+00 -0.780635D+00
      2  -0.151389D+00  0.121762D-01  0.316354D+00  0.121593D+00
      3   0.163073D+00 -0.339108D-01  0.322782D+00  0.404040D+00
 Hessian after L701:
                1             2             3             4             5 
      1  0.270265D+01
      2 -0.437461D+01  0.858049D+01
      3  0.202686D+01 -0.742143D+00  0.153538D+02
      4 -0.183041D-01  0.502086D+00  0.138017D+00  0.119609D+02
      5  0.561760D+00  0.559199D+00 -0.812991D-01  0.425963D+01  0.624951D-02
      6  0.146291D+00 -0.256295D-01 -0.323093D-01  0.191909D+01 -0.481895D+01
      7  0.631374D+00  0.237435D+00 -0.586465D-01  0.726709D+00 -0.682218D+00
      8  0.203711D+00 -0.544723D-01 -0.902241D-02 -0.578653D+00 -0.404245D-01
      9  0.809128D-01  0.507292D-01 -0.106014D+00 -0.237933D+00  0.354711D-01
     10  0.329825D+00 -0.349525D-01  0.153900D+00  0.176638D+00 -0.191552D+00
     11  0.391061D-01 -0.159668D+00  0.150987D-01 -0.196026D+00 -0.466719D-01
     12  0.611700D-01 -0.165989D-01 -0.124719D+00  0.169958D-01 -0.398718D-03
     13 -0.407070D+01  0.501545D+01 -0.154806D+00 -0.130814D+02 -0.439088D+01
     14  0.496236D+01 -0.273843D+01  0.331452D+00 -0.445384D+01 -0.805869D+00
     15 -0.191018D+00  0.265166D+00 -0.912402D+01 -0.177422D+01  0.483221D+01
     16  0.333927D+00 -0.151019D+01 -0.210582D+01  0.817571D-01  0.468322D+00
     17 -0.148378D+01 -0.640628D+01  0.404836D+00  0.511674D+00  0.283817D+00
     18 -0.204312D+01  0.399529D+00 -0.614488D+01  0.499211D-01  0.552370D-01
     19  0.302346D-01 -0.266543D-01 -0.328358D-01 -0.259772D-01 -0.581248D-01
     20 -0.756927D-01 -0.349297D-01  0.362688D-01 -0.674277D-01  0.846298D-01
     21 -0.846372D-01  0.133225D-01  0.498302D-02 -0.583424D-01  0.105901D+00
     22  0.804285D-01  0.963770D-01 -0.447451D-01  0.428336D-01 -0.171378D-01
     23  0.106709D+00  0.283278D-01 -0.347109D-01  0.563131D-01 -0.439106D-01
     24 -0.632709D-01 -0.434126D-01 -0.259162D-01 -0.461735D-01  0.141175D-01
     25  0.103635D-01  0.139863D-02  0.383521D-01 -0.148939D-01 -0.263142D-01
     26  0.108334D-01 -0.376266D-01  0.826456D-02 -0.454053D-01  0.442417D-02
     27  0.937310D-01  0.113697D-01  0.279750D-01  0.739649D-01 -0.769850D-01
     28  0.441881D-01  0.176390D-01  0.910347D-02  0.632200D-01 -0.394241D-01
     29  0.248502D-01 -0.497113D-02  0.296679D-02  0.338807D-02 -0.215617D-01
     30  0.765009D-02  0.148097D-02 -0.114730D-01  0.760320D-02 -0.494959D-02
     31  0.382364D-01 -0.120721D-01  0.157871D-01  0.166325D-01 -0.346965D-01
     32 -0.465597D-01 -0.910011D-02 -0.880785D-02 -0.443280D-01  0.375176D-01
     33  0.407413D-02 -0.126516D-03 -0.153869D-01 -0.194047D-02  0.378582D-02
     34 -0.622138D-01  0.398903D-01  0.167552D-01  0.315694D-01  0.943857D-01
[...]
 ! R5    R(3,5)                  1.5017         -DE/DX =    0.0                 !
 ! R6    R(3,7)                  1.0902         -DE/DX =    0.0                 !
 ! R7    R(3,8)                  1.0868         -DE/DX =    0.0                 !
 ! R8    R(4,9)                  1.0891         -DE/DX =    0.0                 !
 ! R9    R(4,10)                 1.0881         -DE/DX =    0.0                 !
 ! R10   R(4,11)                 1.0882         -DE/DX =    0.0                 !
 ! R11   R(6,12)                 1.074          -DE/DX =    0.0                 !
 ! R12   R(6,13)                 1.0754         -DE/DX =    0.0                 !
 ! A1    A(5,1,6)              118.2227         -DE/DX =    0.0                 !
 ! A2    A(4,3,5)              111.072          -DE/DX =    0.0                 !
 ! A3    A(4,3,7)              109.949          -DE/DX =    0.0                 !
 ! A4    A(4,3,8)              111.1053         -DE/DX =    0.0                 !
 ! A5    A(5,3,7)              108.5307         -DE/DX =    0.0                 !
 ! A6    A(5,3,8)              107.1947         -DE/DX =    0.0                 !
 ! A7    A(7,3,8)              108.8987         -DE/DX =    0.0                 !
 ! A8    A(3,4,9)              110.7217         -DE/DX =    0.0                 !
 ! A9    A(3,4,10)             110.1831         -DE/DX =    0.0                 !
 ! A10   A(3,4,11)             110.7674         -DE/DX =    0.0                 !
 ! A11   A(9,4,10)             108.2026         -DE/DX =    0.0                 !
 ! A12   A(9,4,11)             108.4672         -DE/DX =    0.0                 !
 ! A13   A(10,4,11)            108.4191         -DE/DX =    0.0                 !
 ! A14   A(1,5,2)              122.7223         -DE/DX =    0.0                 !
 ! A15   A(1,5,3)              110.7037         -DE/DX =    0.0                 !
 ! A16   A(2,5,3)              126.5608         -DE/DX =    0.0                 !
 ! A17   A(1,6,12)             113.8939         -DE/DX =    0.0                 !
 ! A18   A(1,6,13)             118.4656         -DE/DX =    0.0                 !
 ! A19   A(12,6,13)            125.6651         -DE/DX =    0.0                 !
 ! D1    D(6,1,5,2)             -1.5661         -DE/DX =    0.0                 !
 ! D2    D(6,1,5,3)            177.1928         -DE/DX =    0.0                 !
 ! D3    D(5,1,6,12)           173.3704         -DE/DX =    0.0                 !
 ! D4    D(5,1,6,13)             8.4447         -DE/DX =    0.0                 !
 ! D5    D(5,3,4,9)            -59.459          -DE/DX =    0.0                 !
 ! D6    D(5,3,4,10)          -179.1218         -DE/DX =    0.0                 !
 ! D7    D(5,3,4,11)            60.9162         -DE/DX =    0.0                 !
 ! D8    D(7,3,4,9)           -179.6033         -DE/DX =    0.0                 !
 ! D9    D(7,3,4,10)            60.7338         -DE/DX =    0.0                 !
 ! D10   D(7,3,4,11)           -59.2281         -DE/DX =    0.0                 !
 ! D11   D(8,3,4,9)             59.77           -DE/DX =    0.0                 !
 ! D12   D(8,3,4,10)           -59.8928         -DE/DX =    0.0                 !
 ! D13   D(8,3,4,11)          -179.8548         -DE/DX =    0.0                 !
 ! D14   D(4,3,5,1)            -69.8899         -DE/DX =    0.0                 !
 ! D15   D(4,3,5,2)            108.8102         -DE/DX =    0.0                 !
 ! D16   D(7,3,5,1)             51.0928         -DE/DX =    0.0                 !
 ! D17   D(7,3,5,2)           -130.2072         -DE/DX =    0.0                 !
 ! D18   D(8,3,5,1)            168.5647         -DE/DX =    0.0                 !
 ! D19   D(8,3,5,2)            -12.7353         -DE/DX =    0.0                 !
 ! D20   D(1,6,12,13)         -163.6555         -DE/DX =    0.0                 !
 --------------------------------------------------------------------------------
 GradGradGradGradGradGradGradGradGradGradGradGradGradGradGradGradGradGrad

 Leave Link  103 at Tue Apr  9 02:39:34 2019, MaxMem=   671088640 cpu:               0.4 elap:               0.1
 (Enter /shared/centos7/gaussian/g16/l9999.exe)

 ----------------------------------------------------------------------

 Electric dipole moment (input orientation):
 (Debye = 10**-18 statcoulomb cm , SI units = C m)
                  (au)            (Debye)         (10**-30 SI)
   Tot        0.826091D+00      0.209971D+01      0.700389D+01
   x         -0.338883D+00     -0.861355D+00     -0.287317D+01
   y          0.378057D+00      0.960925D+00      0.320530D+01
   z         -0.651657D+00     -0.165635D+01     -0.552498D+01

 Dipole polarizability, Alpha (input orientation).
 (esu units = cm**3 , SI units = C**2 m**2 J**-1)
 Alpha(0;0):
               (au)            (10**-24 esu)      (10**-40 SI)
   iso        0.557883D+02      0.826698D+01      0.919825D+01
   aniso      0.189163D+02      0.280311D+01      0.311888D+01
   xx         0.665337D+02      0.985928D+01      0.109699D+02
   yx         0.339666D+01      0.503333D+00      0.560034D+00
   yy         0.517464D+02      0.766803D+01      0.853183D+01
   zx         0.136958D+01      0.202951D+00      0.225814D+00
   zy        -0.418259D+01     -0.619795D+00     -0.689615D+00
   zz         0.490849D+02      0.727363D+01      0.809300D+01

 ----------------------------------------------------------------------

 Dipole orientation:
     8          2.45905101         -0.21487800         -0.21705966
     8          0.17521747          0.92080124         -3.61140232
     6         -1.49369074          1.68872931          0.56216075
     6         -2.73180171         -0.55728782          1.90180213
     6          0.39516129          0.81206860         -1.36577053
     6          4.30786879         -1.20471212         -1.70020796
     1         -0.52317503          2.87846782          1.93570479
     1         -2.89161734          2.82110609         -0.42865500
     1         -3.69804944         -1.77002642          0.54843710
     1         -4.11490214          0.10749889          3.27036022
     1         -1.32404409         -1.68079169          2.89407091
     1          5.96163767         -1.78385444         -0.67593934
     1          4.20035001         -0.91042804         -3.70817238

 Electric dipole moment (dipole orientation):
 (Debye = 10**-18 statcoulomb cm , SI units = C m)
                  (au)            (Debye)         (10**-30 SI)
   Tot        0.826091D+00      0.209971D+01      0.700389D+01
   x          0.000000D+00      0.000000D+00      0.000000D+00
   y          0.000000D+00      0.000000D+00      0.000000D+00
   z          0.826091D+00      0.209971D+01      0.700389D+01

 Dipole polarizability, Alpha (dipole orientation).
 (esu units = cm**3 , SI units = C**2 m**2 J**-1)
 Alpha(0;0):
               (au)            (10**-24 esu)      (10**-40 SI)
   iso        0.557883D+02      0.826698D+01      0.919825D+01
   aniso      0.189163D+02      0.280311D+01      0.311888D+01
   xx         0.634225D+02      0.939825D+01      0.104570D+02
   yx        -0.648274D+01     -0.960643D+00     -0.106886D+01
   yy         0.487328D+02      0.722146D+01      0.803496D+01
   zx        -0.471152D+01     -0.698176D+00     -0.776825D+00
   zy        -0.923704D+00     -0.136879D+00     -0.152298D+00
   zz         0.552096D+02      0.818122D+01      0.910284D+01

 ----------------------------------------------------------------------

 Test job not archived.
 1\1\GINC-C0157\Freq\UM062X\6-311+G(2df,2p)\C4H7O2(2)\UNDERKOFFLER.C\09
 -Apr-2019\0\\#P Geom=AllCheck Guess=TCheck SCRF=Check Test GenChk UM06
 2X/6-311+G(2df,2p) Freq\\Gaussian input prepared by ASE\\0,2\O,1.23791
 0353,0.1843965334,-0.3911679986\O,0.8168299285,-1.2950803599,1.2465061
 335\C,-0.9318894449,-0.7358221613,-0.3193837026\C,-1.6915091125,0.5692
 313351,-0.0658993265\C,0.4408227139,-0.6882257108,0.2876795527\C,2.501
 1612647,0.3903622075,0.0663242769\H,-0.8308746224,-0.9051541776,-1.391
 5610155\H,-1.4498490365,-1.5824797661,0.1234512192\H,-1.7935810353,0.7
 544333623,1.0024980556\H,-2.6885698787,0.5132479617,-0.4979374116\H,-1
 .1696447768,1.4126412025,-0.5136237427\H,3.1037835456,1.0008473918,-0.
 5799938417\H,2.8691663062,-0.2393849047,0.8565978535\\Version=EM64L-G1
 6RevA.03\State=2-A\HF=-307.0074441\S2=0.754862\S2-1=0.\S2A=0.750018\RM
 SD=8.416e-09\RMSF=3.988e-07\ZeroPoint=0.1047772\Thermal=0.1122418\Dipo
 le=-0.3388833,0.378057,-0.6516572\DipoleDeriv=-1.3822179,-0.5088767,0.
 0468496,-0.6407545,-0.6106816,0.3333528,0.1093785,0.3700708,-0.5238312
 ,-0.606744,0.1618271,-0.2481117,-0.1722068,-0.6769147,0.3160423,0.0752
 322,0.5226231,-0.8585764,-0.1666291,0.0350555,-0.1020776,0.1002196,0.0
 367086,0.0359204,-0.1023917,0.0100272,0.0346476,0.0343895,-0.0130785,-
 0.0160528,-0.1083759,0.0639644,-0.023475,-0.0423957,0.0046676,0.057578
 2,1.4629939,0.2126172,0.1607852,0.6894727,0.9884696,-0.6203746,-0.2684
 51,-0.8626395,1.0840109,0.6259099,0.2471685,0.147789,0.1586341,-0.0744
 119,-0.1908114,0.2155938,-0.1834789,0.0504937,0.0162576,0.0187707,0.02
 58137,0.0022661,0.0574336,-0.0266341,0.0146826,-0.045333,-0.0566376,0.
 0045063,-0.0258166,0.0043261,-0.0360845,-0.0365282,0.0265947,0.0212156
 ,0.0535942,0.0487075,0.0616094,0.021162,-0.0031331,0.0297784,0.0309643
 ,-0.0088141,0.0358228,-0.045994,-0.0916015,-0.1194575,0.0232674,-0.065
 1918,0.0262337,0.0445393,-0.0100308,-0.0669333,-0.0080691,0.0490829,0.
 036696,-0.0647696,0.0473539,-0.0237396,-0.051042,0.03046,0.0363214,0.0
 481444,0.0405591,0.0084239,-0.0409318,-0.0145782,-0.0371675,0.1246485,
 0.0589448,0.0203287,0.0878727,0.0595788,0.024262,-0.0663953,0.0162276,
 0.0117242,0.1028502,0.078825,-0.0484038,0.0485145,0.1059879\Polar=66.5
 337239,3.3966607,51.7464185,1.3695832,-4.182585,49.0848632\Quadrupole=
 3.5583797,-1.561596,-1.9967837,1.2555081,-0.3079436,1.5668197\PG=C01 [
 X(C4H7O2)]\NImag=0\\0.50352977,0.15057801,0.21650432,0.05752454,-0.143
 20924,0.24988752,0.02223446,-0.01693345,0.01815703,0.17932875,-0.02170
 864,-0.03744903,0.06991771,-0.10415239,0.27579948,0.02422944,0.0721788
 3,-0.05158207,0.20817284,-0.36277121,0.59339970,-0.03382172,-0.0129586
 7,-0.00665210,-0.00524861,0.00187927,-0.01822595,0.50102166,-0.0344966
 3,-0.00068131,-0.00413415,0.01687443,0.01245014,0.02360819,0.06868749,
 0.52516917,0.01866891,0.00834853,0.01029996,-0.03887769,0.01700738,-0.
 01276164,-0.02799297,-0.04285981,0.58760341,0.00023211,-0.00087856,-0.
 00075290,-0.00030479,-0.00294041,-0.00287406,-0.10448074,0.04877606,0.
 01371516,0.55815748,-0.00276359,-0.00335678,0.00097554,-0.00261691,0.0
 0043613,-0.00417854,0.04137841,-0.16049476,-0.01838058,0.04954614,0.49
 760108,-0.00080217,-0.00018515,0.00033428,-0.00257956,-0.00195600,-0.0
 0440704,0.00914518,-0.01506257,-0.07755828,0.01027743,-0.01775672,0.57
 775545,-0.15637927,-0.05382744,0.02044387,-0.19643085,0.11488928,-0.20
 612421,-0.18752745,-0.01135339,-0.04583774,-0.02180577,0.01438629,-0.0
 0451650,0.62570424,-0.05093302,-0.12547717,0.04719429,0.10376378,-0.25
 134152,0.27132465,-0.01040547,-0.08345505,-0.01184801,0.03163400,0.003
 09545,0.01449445,-0.02259342,0.47360951,0.01970699,0.04624060,-0.11479
 172,-0.19056160,0.27689073,-0.52485366,-0.04107925,-0.01040166,-0.1010
 1038,0.00563789,0.00691365,0.00390765,0.22686870,-0.30810189,0.7373031
 5,-0.27826868,-0.05875270,-0.08352182,0.00250371,0.01037311,-0.0090682
 9,0.00278798,-0.00044073,0.00115891,-0.00019555,-0.00021830,0.00039974
 ,-0.05993738,-0.03477243,0.00706699,0.55406540,-0.03498988,-0.05860107
 ,0.03942591,0.00210358,-0.00057492,-0.00153061,-0.00118831,-0.00035390
 ,0.00313240,-0.00064630,-0.00017745,-0.00025382,-0.03814930,-0.0049879
 8,-0.01111262,0.13369307,0.32971927,-0.09757557,0.02671539,-0.10211037
 ,0.00328270,0.00143217,-0.00308091,0.00217561,0.00462117,-0.00117051,-
 0.00064386,-0.00017862,-0.00004819,0.01403171,-0.00501221,0.01647711,0
 .06476632,-0.32731467,0.45158318,-0.00011135,0.00079436,0.00232059,-0.
 00702132,0.00309639,-0.00089621,-0.05093270,-0.00273776,0.02318890,-0.
 00157404,0.00359879,0.01833882,0.00713434,-0.00544361,-0.03355987,-0.0
 0059228,-0.00000683,-0.00013157,0.05441530,-0.00056910,-0.00014222,0.0
 0053498,0.00130528,0.00040665,0.00005970,-0.00222221,-0.05034011,-0.03
 642137,0.00382651,-0.00691256,-0.03014140,0.00154763,-0.00184247,-0.00
 053211,-0.00019804,-0.00015912,-0.00008559,-0.00526215,0.05570496,0.00
 115480,0.00065210,0.00198046,-0.00346101,-0.00043829,0.00038736,0.0225
 1038,-0.03872721,-0.30844720,0.00091886,-0.00139875,-0.00344588,0.0025
 8438,0.00046542,-0.01640850,-0.00078991,-0.00007722,0.00013021,-0.0241
 0445,0.04209876,0.33381156,-0.00845321,-0.00167436,-0.00324441,0.00278
 943,0.00212245,0.00047587,-0.11201370,-0.10149617,0.05144357,0.0096414
 6,0.01543033,-0.00818501,-0.01448244,-0.02581087,0.01628638,0.00026326
 ,-0.00062615,0.00106943,-0.00126669,-0.00025089,0.00051489,0.12470427,
 0.00002176,0.00090728,-0.00010119,0.00138992,0.00100009,-0.00073048,-0
 .10685352,-0.21185423,0.08655420,-0.01222646,-0.02199594,0.01085919,0.
 00050862,-0.00294320,0.00189064,0.00025862,0.00020914,0.00022715,0.003
 74519,0.00538070,-0.00190253,0.11031246,0.23062133,-0.00287100,-0.0000
 1450,0.00009275,0.00046728,-0.00023212,0.00034817,0.05685186,0.0897877
 8,-0.09933478,-0.00368751,-0.00567223,0.00292169,-0.00644652,-0.011651
 27,0.00411870,-0.00053756,-0.00027300,0.00062570,0.01532985,0.02420801
 ,-0.01040689,-0.05866325,-0.09519742,0.10057153,-0.00034145,-0.0002311
 1,-0.00041254,0.00005449,-0.00003887,-0.00078598,-0.00335662,0.0034045
 8,0.01671420,-0.05072795,0.00247621,0.02263866,0.00112155,-0.00029110,
 0.00269949,0.00003932,0.00006483,0.00004408,-0.00114829,0.00327200,0.0
 0036640,0.00047145,-0.00058830,-0.00066213,0.05129215,0.00019206,0.000
 04081,0.00019350,0.00000260,-0.00034959,0.00095192,0.00401888,-0.00603
 453,-0.02884510,0.00257936,-0.05405643,-0.04037136,-0.00167772,0.00131
 607,-0.00203309,-0.00001842,-0.00001370,-0.00010198,0.00357167,-0.0047
 2307,-0.00049689,-0.00094290,0.00099079,0.00006415,-0.00708850,0.05889
 120,0.00064405,0.00010647,-0.00000152,0.00082215,-0.00023636,0.0005677
 5,0.00086348,-0.00092766,-0.00267156,0.02331987,-0.04199605,-0.3105401
 7,-0.00093970,-0.00020464,-0.00025715,-0.00008380,-0.00002316,-0.00001
 865,0.00004736,-0.00039687,0.00151416,0.00004654,-0.00035248,0.0003638
 8,-0.02641751,0.04736132,0.33428465,-0.00047695,-0.00007434,-0.0000140
 7,-0.00067246,-0.00011071,-0.00096546,-0.01431624,-0.00040313,-0.00539
 873,-0.27621011,-0.01631123,-0.10059063,0.00119851,0.00288130,0.001884
 52,0.00019709,-0.00005138,-0.00006574,0.00025799,-0.00049291,0.0002845
 9,0.00064545,0.00000102,-0.00014567,0.00433170,-0.00005944,0.00148557,
 0.29831989,0.00056691,0.00161868,-0.00024005,0.00132093,0.00067894,0.0
 0202260,0.03003873,-0.00068810,0.01136611,-0.01770494,-0.04671469,-0.0
 0676920,-0.00082025,-0.00718650,-0.00266484,0.00027887,0.00031875,0.00
 013885,-0.00092608,0.00148642,-0.00001026,-0.00075620,0.00113383,0.000
 60574,-0.00468231,-0.00138746,-0.00122059,0.01499248,0.05154841,0.0005
 2287,0.00004732,0.00021701,0.00042236,-0.00005141,0.00099021,0.0070853
 8,0.00034296,0.00213276,-0.10135550,-0.00646134,-0.09209085,0.00053833
 ,-0.00116460,-0.00066814,-0.00023116,-0.00006324,-0.00008947,0.0001731
 8,0.00064269,0.00040353,-0.00042581,0.00028684,-0.00000054,-0.03002255
 ,-0.00192068,-0.01151062,0.10968195,0.00863998,0.09487236,-0.00051591,
 0.00020432,0.00027038,-0.00031984,-0.00027378,0.00023836,0.00825764,0.
 01482247,-0.00796671,-0.11282292,-0.10471403,0.05590294,0.00169678,0.0
 0078818,-0.00121369,-0.00039285,-0.00015774,-0.00003523,0.00066631,-0.
 00099260,-0.00009719,-0.00163689,0.00351662,0.00053724,-0.00167690,-0.
 00061384,0.00015397,-0.01319656,-0.02234238,0.01356977,0.11987893,-0.0
 0010218,0.00128142,-0.00059217,0.00071464,0.00058270,-0.00015981,-0.01
 235753,-0.02344125,0.01162062,-0.10209633,-0.20756436,0.08707913,-0.00
 302206,-0.00168097,0.00109682,0.00071790,0.00035049,-0.00000429,-0.000
 51441,0.00108652,-0.00017014,0.00375308,-0.00345343,-0.00162746,0.0036
 8302,0.00532525,-0.00208116,-0.00041494,-0.00073738,-0.00027510,0.1097
 3732,0.22828265,-0.00003120,-0.00069923,0.00006423,-0.00022048,-0.0001
 3702,0.00018579,-0.00417082,-0.00558694,0.00241954,0.05537886,0.088070
 88,-0.09681392,0.00076860,0.00136241,-0.00038834,-0.00019095,-0.000065
 76,-0.00014635,-0.00070972,0.00001475,0.00043824,0.00091040,-0.0015013
 5,0.00072977,0.01583312,0.02518716,-0.01171156,-0.00616481,-0.01183493
 ,0.00573221,-0.06140473,-0.09486594,0.09944443,-0.02765167,-0.02140586
 ,0.01933602,0.00238954,-0.00076783,0.00219963,-0.00044182,-0.00128489,
 0.00081746,0.00004209,-0.00016272,-0.00003004,-0.00208420,0.00513961,-
 0.00723544,-0.13725223,-0.10329016,0.09080799,0.00000133,-0.00001729,-
 0.00000611,-0.00046248,-0.00001454,-0.00020081,-0.00000943,0.00002642,
 0.00002005,-0.00003953,0.00005987,0.00001293,-0.00000695,0.00002709,0.
 00000431,0.15575734,-0.00163505,-0.00251117,-0.00145159,-0.00116729,0.
 00031318,-0.00101538,-0.00012164,-0.00003280,0.00026191,0.00004508,0.0
 0005053,-0.00000973,0.00008304,0.00085512,0.00200727,-0.10510382,-0.12
 530546,0.13110342,0.00002858,0.00003491,-0.00000547,-0.00001021,0.0000
 2592,-0.00001632,0.00000675,-0.00000383,-0.00001181,0.00001528,-0.0000
 1386,-0.00000665,0.00000850,0.00001390,0.00001877,0.11541514,0.1298782
 3,-0.01293710,-0.01386481,0.00994714,0.00170757,-0.00043123,0.00151681
 ,-0.00036298,-0.00052109,0.00056252,0.00003538,-0.00001524,0.00000575,
 -0.00316335,0.00225452,-0.00258608,0.10460461,0.14442684,-0.16234614,0
 .00004719,-0.00000170,0.00000536,-0.00019352,-0.00003565,-0.00004864,0
 .00000225,0.00001848,-0.00001013,0.00000393,0.00000041,-0.00000450,0.0
 0001985,0.00003128,0.00002705,-0.10099385,-0.13453475,0.15664244,-0.01
 997613,0.01515980,-0.02345456,0.00069750,-0.00236785,0.00362402,0.0000
 7231,-0.00035233,0.00036674,0.00004873,-0.00002938,0.00000111,0.001791
 94,0.00604305,-0.00650111,-0.08321780,0.04324457,-0.07772588,0.0001714
 1,0.00005377,0.00012436,-0.00019991,-0.00007139,0.00002822,-0.00005003
 ,0.00000984,0.00003799,-0.00003877,-0.00002565,0.00002825,0.00006914,-
 0.00012561,-0.00000258,0.00975800,-0.00756436,0.01123001,0.09087360,-0
 .00416065,0.00786624,-0.00851355,-0.00260512,-0.00195226,0.00024014,0.
 00010455,-0.00024328,0.00006372,0.00008585,0.00008979,0.00007318,0.000
 02873,0.00003871,-0.00019352,0.05418287,-0.14042404,0.16845921,0.00005
 586,0.00001939,0.00001049,-0.00005056,-0.00002227,0.00001864,0.0000128
 0,0.00000447,-0.00001701,0.00002803,-0.00005706,-0.00001676,0.00001695
 ,-0.00004554,0.00003720,0.00627515,-0.00330467,0.00267293,-0.05397446,
 0.13803053,-0.00823458,0.00368369,-0.00433768,0.00266843,0.00100566,-0
 .00071047,-0.00014782,-0.00013902,-0.00006386,0.00003038,0.00007800,-0
 .00002048,0.00179243,0.00088687,-0.00084265,-0.08357308,0.15372894,-0.
 19980562,-0.00004407,0.00002015,0.00003759,-0.00003509,0.00000307,0.00
 001866,0.00000252,-0.00000743,-0.00000909,0.00000455,-0.00003381,0.000
 01606,0.00002505,-0.00005179,0.00001892,-0.00473214,0.00366033,-0.0037
 1158,0.09224341,-0.16283468,0.20941020\\0.00000005,-0.00000007,-0.0000
 0056,-0.00000011,0.00000018,-0.00000005,-0.00000029,0.00000026,0.00000
 039,0.00000010,0.00000035,0.00000016,-0.00000004,-0.00000043,0.0000006
 9,0.00000016,-0.00000062,-0.00000060,-0.00000045,-0.00000017,0.0000002
 9,-0.00000033,0.00000033,0.00000069,0.00000039,0.00000066,0.00000016,0
 .00000002,0.00000048,0.00000039,0.00000026,0.00000018,-0.00000016,0.00
 000013,-0.00000077,-0.00000088,0.00000011,-0.00000039,-0.00000052\\\@


 TIMES HAVE CHANGED. IN THE BIBLE WHEN AN ASS
 SPOKE IT WAS CONSIDERED A MIRACLE.
 Job cpu time:       0 days  1 hours 54 minutes 35.3 seconds.
 Elapsed time:       0 days  0 hours  5 minutes 44.3 seconds.
 File lengths (MBytes):  RWF=   1392 Int=      0 D2E=      0 Chk=     32 Scr=     32
 Normal termination of Gaussian 16 at Tue Apr  9 02:39:34 2019.
