 Entering Gaussian System, Link 0=g16
 Input=OJWHOIQFDAGZNF-UHFFFAOYSA-N_GeoFreq_c2_a1.com
 Output=OJWHOIQFDAGZNF-UHFFFAOYSA-N_GeoFreq_c2_a1.log
 Initial command:
 /shared/centos7/gaussian/g16/l1.exe "/scratch/underkoffler.c/gaussian_scratch/Gau-1625.inp" -scrdir="/scratch/underkoffler.c/gaussian_scratch/"
 Entering Link 1 = /shared/centos7/gaussian/g16/l1.exe PID=      1626.
  
 Copyright (c) 1988,1990,1992,1993,1995,1998,2003,2009,2016,
            Gaussian, Inc.  All Rights Reserved.
  
 This is part of the Gaussian(R) 16 program.  It is based on
 the Gaussian(R) 09 system (copyright 2009, Gaussian, Inc.),
 the Gaussian(R) 03 system (copyright 2003, Gaussian, Inc.),
 the Gaussian(R) 98 system (copyright 1998, Gaussian, Inc.),
 the Gaussian(R) 94 system (copyright 1995, Gaussian, Inc.),
 the Gaussian 92(TM) system (copyright 1992, Gaussian, Inc.),
 the Gaussian 90(TM) system (copyright 1990, Gaussian, Inc.),
 the Gaussian 88(TM) system (copyright 1988, Gaussian, Inc.),
 the Gaussian 86(TM) system (copyright 1986, Carnegie Mellon
 University), and the Gaussian 82(TM) system (copyright 1983,
 Carnegie Mellon University). Gaussian is a federally registered
 trademark of Gaussian, Inc.
  
 This software contains proprietary and confidential information,
 including trade secrets, belonging to Gaussian, Inc.
  
 This software is provided under written license and may be
 used, copied, transmitted, or stored only in accord with that
 written license.
  
 The following legend is applicable only to US Government
 contracts under FAR:
  
                    RESTRICTED RIGHTS LEGEND
  
 Use, reproduction and disclosure by the US Government is
 subject to restrictions as set forth in subparagraphs (a)
 and (c) of the Commercial Computer Software - Restricted
 Rights clause in FAR 52.227-19.
  
 Gaussian, Inc.
 340 Quinnipiac St., Bldg. 40, Wallingford CT 06492
  
  
 ---------------------------------------------------------------
 Warning -- This program may not be used in any manner that
 competes with the business of Gaussian, Inc. or will provide
 assistance to any competitor of Gaussian, Inc.  The licensee
 of this program is prohibited from giving any competitor of
 Gaussian, Inc. access to this program.  By using this program,
 the user acknowledges that Gaussian, Inc. is engaged in the
 business of creating and licensing software in the field of
 computational chemistry and represents and warrants to the
 licensee that it is not a competitor of Gaussian, Inc. and that
 it will not use this program in any manner prohibited above.
 ---------------------------------------------------------------
  

 Cite this work as:
 Gaussian 16, Revision A.03,
 M. J. Frisch, G. W. Trucks, H. B. Schlegel, G. E. Scuseria, 
 M. A. Robb, J. R. Cheeseman, G. Scalmani, V. Barone, 
 G. A. Petersson, H. Nakatsuji, X. Li, M. Caricato, A. V. Marenich, 
 J. Bloino, B. G. Janesko, R. Gomperts, B. Mennucci, H. P. Hratchian, 
 J. V. Ortiz, A. F. Izmaylov, J. L. Sonnenberg, D. Williams-Young, 
 F. Ding, F. Lipparini, F. Egidi, J. Goings, B. Peng, A. Petrone, 
 T. Henderson, D. Ranasinghe, V. G. Zakrzewski, J. Gao, N. Rega, 
 G. Zheng, W. Liang, M. Hada, M. Ehara, K. Toyota, R. Fukuda, 
 J. Hasegawa, M. Ishida, T. Nakajima, Y. Honda, O. Kitao, H. Nakai, 
 T. Vreven, K. Throssell, J. A. Montgomery, Jr., J. E. Peralta, 
 F. Ogliaro, M. J. Bearpark, J. J. Heyd, E. N. Brothers, K. N. Kudin, 
 V. N. Staroverov, T. A. Keith, R. Kobayashi, J. Normand, 
 K. Raghavachari, A. P. Rendell, J. C. Burant, S. S. Iyengar, 
 J. Tomasi, M. Cossi, J. M. Millam, M. Klene, C. Adamo, R. Cammi, 
 J. W. Ochterski, R. L. Martin, K. Morokuma, O. Farkas, 
 J. B. Foresman, and D. J. Fox, Gaussian, Inc., Wallingford CT, 2016.
 
 ******************************************
 Gaussian 16:  EM64L-G16RevA.03 25-Dec-2016
                 9-Apr-2019 
 ******************************************
 %nprocshared=20
 Will use up to   20 processors via shared memory.
 %mem=5GB
 ----------------------------------------------------------------------
 #p m062x/6-311+g(2df,2p) opt=(calcfc,verytight,gdiis,maxcycles=900) fr
 eq iop(7/33=1,2/16=3)
 ----------------------------------------------------------------------

 Warning!  Use of Opt=GDIIS is deprecated since it is seldom a good choice.

 1/6=900,7=1,10=4,18=20,19=11,26=3,38=1/1,3;
 2/9=110,12=2,16=3,17=6,18=5,40=1/2;
 3/5=4,6=6,7=214,11=2,25=1,30=1,71=2,74=-55,140=1/1,2,3;
 4//1;
 5/5=2,38=5/2;
 8/6=4,10=90,11=11/1;
 11/6=1,8=1,9=11,15=111,16=1/1,2,10;
 10/6=1,13=1/2;
 6/7=2,8=2,9=2,10=2,28=1/1;
 7/10=1,18=20,25=1,33=1/1,2,3,16;
 1/6=900,7=1,10=4,18=20,19=11,26=3/3(2);
 2/9=110,16=3/2;
 99//99;
 2/9=110,16=3/2;
 3/5=4,6=6,7=214,11=2,25=1,30=1,71=1,74=-55/1,2,3;
 4/5=5,16=3,69=1/1;
 5/5=2,38=5/2;
 7/33=1/1,2,3,16;
 1/6=900,7=1,18=20,19=11,26=3/3(-5);
 2/9=110,16=3/2;
 6/7=2,8=2,9=2,10=2,19=2,28=1/1;
 99/9=1/99;
 Leave Link    1 at Tue Apr  9 02:05:57 2019, MaxMem=   671088640 cpu:              25.7 elap:               1.4
 (Enter /shared/centos7/gaussian/g16/l101.exe)
 ------------------------------
 Gaussian input prepared by ASE
 ------------------------------
 Symbolic Z-matrix:
 Charge =  0 Multiplicity = 2
 O                     1.6401    0.01532   0.802 
 O                     0.62001  -1.63058  -0.48782 
 C                    -0.41693  -0.94115   1.61096 
 C                     0.02581  -1.60187   2.88509 
 C                     0.62061  -0.91472   0.55958 
 C                     2.63768   0.04091  -0.21783 
 H                    -0.72933   0.09971   1.837 
 H                    -1.32659  -1.46531   1.22263 
 H                    -0.25625  -2.68179   2.88289 
 H                    -0.46297  -1.11723   3.76718 
 H                     1.11307  -1.53741   3.02326 
 H                     2.27298  -0.30583  -1.19198 
 H                     3.1885    0.98679  -0.17733 
 
 Add atom      6 valence  3 ND=      2 dihedral       1      6     12     13
 ITRead=  0  0  0  0  0  0  0  0  0  0  0  0  0
 MicOpt= -1 -1 -1 -1 -1 -1 -1 -1 -1 -1 -1 -1 -1
 NAtoms=     13 NQM=       13 NQMF=       0 NMMI=      0 NMMIF=      0
                NMic=       0 NMicF=      0.
                    Isotopes and Nuclear Properties:
 (Nuclear quadrupole moments (NQMom) in fm**2, nuclear magnetic moments (NMagM)
  in nuclear magnetons)

  Atom         1           2           3           4           5           6           7           8           9          10
 IAtWgt=          16          16          12          12          12          12           1           1           1           1
 AtmWgt=  15.9949146  15.9949146  12.0000000  12.0000000  12.0000000  12.0000000   1.0078250   1.0078250   1.0078250   1.0078250
 NucSpn=           0           0           0           0           0           0           1           1           1           1
 AtZEff=  -0.0000000  -0.0000000  -0.0000000  -0.0000000  -0.0000000  -0.0000000  -0.0000000  -0.0000000  -0.0000000  -0.0000000
 NQMom=    0.0000000   0.0000000   0.0000000   0.0000000   0.0000000   0.0000000   0.0000000   0.0000000   0.0000000   0.0000000
 NMagM=    0.0000000   0.0000000   0.0000000   0.0000000   0.0000000   0.0000000   2.7928460   2.7928460   2.7928460   2.7928460
 AtZNuc=   8.0000000   8.0000000   6.0000000   6.0000000   6.0000000   6.0000000   1.0000000   1.0000000   1.0000000   1.0000000

  Atom        11          12          13
 IAtWgt=           1           1           1
 AtmWgt=   1.0078250   1.0078250   1.0078250
 NucSpn=           1           1           1
 AtZEff=  -0.0000000  -0.0000000  -0.0000000
 NQMom=    0.0000000   0.0000000   0.0000000
 NMagM=    2.7928460   2.7928460   2.7928460
 AtZNuc=   1.0000000   1.0000000   1.0000000
 Leave Link  101 at Tue Apr  9 02:05:57 2019, MaxMem=   671088640 cpu:               8.9 elap:               0.5
 (Enter /shared/centos7/gaussian/g16/l103.exe)

 GradGradGradGradGradGradGradGradGradGradGradGradGradGradGradGradGradGrad
 Berny optimization.
 Initialization pass.
                           ----------------------------
                           !    Initial Parameters    !
                           ! (Angstroms and Degrees)  !
 --------------------------                            --------------------------
 ! Name  Definition              Value          Derivative Info.                !
 --------------------------------------------------------------------------------
 ! R1    R(1,5)                  1.4011         calculate D2E/DX2 analytically  !
 ! R2    R(1,6)                  1.4268         calculate D2E/DX2 analytically  !
 ! R3    R(2,5)                  1.2687         calculate D2E/DX2 analytically  !
 ! R4    R(3,4)                  1.502          calculate D2E/DX2 analytically  !
 ! R5    R(3,5)                  1.4774         calculate D2E/DX2 analytically  !
 ! R6    R(3,7)                  1.11           calculate D2E/DX2 analytically  !
 ! R7    R(3,8)                  1.1194         calculate D2E/DX2 analytically  !
 ! R8    R(4,9)                  1.1161         calculate D2E/DX2 analytically  !
 ! R9    R(4,10)                 1.1189         calculate D2E/DX2 analytically  !
 ! R10   R(4,11)                 1.0979         calculate D2E/DX2 analytically  !
 ! R11   R(6,12)                 1.0964         calculate D2E/DX2 analytically  !
 ! R12   R(6,13)                 1.0953         calculate D2E/DX2 analytically  !
 ! A1    A(5,1,6)              113.3886         calculate D2E/DX2 analytically  !
 ! A2    A(4,3,5)              113.8632         calculate D2E/DX2 analytically  !
 ! A3    A(4,3,7)              108.8264         calculate D2E/DX2 analytically  !
 ! A4    A(4,3,8)              109.1378         calculate D2E/DX2 analytically  !
 ! A5    A(5,3,7)              109.0147         calculate D2E/DX2 analytically  !
 ! A6    A(5,3,8)              109.4028         calculate D2E/DX2 analytically  !
 ! A7    A(7,3,8)              106.3216         calculate D2E/DX2 analytically  !
 ! A8    A(3,4,9)              110.4538         calculate D2E/DX2 analytically  !
 ! A9    A(3,4,10)             110.4551         calculate D2E/DX2 analytically  !
 ! A10   A(3,4,11)             111.8908         calculate D2E/DX2 analytically  !
 ! A11   A(9,4,10)             108.0747         calculate D2E/DX2 analytically  !
 ! A12   A(9,4,11)             107.897          calculate D2E/DX2 analytically  !
 ! A13   A(10,4,11)            107.9369         calculate D2E/DX2 analytically  !
 ! A14   A(1,5,2)              121.1803         calculate D2E/DX2 analytically  !
 ! A15   A(1,5,3)              113.5631         calculate D2E/DX2 analytically  !
 ! A16   A(2,5,3)              125.2482         calculate D2E/DX2 analytically  !
 ! A17   A(1,6,12)             113.3788         calculate D2E/DX2 analytically  !
 ! A18   A(1,6,13)             109.9166         calculate D2E/DX2 analytically  !
 ! A19   A(12,6,13)            118.2428         calculate D2E/DX2 analytically  !
 ! D1    D(6,1,5,2)             -0.7938         calculate D2E/DX2 analytically  !
 ! D2    D(6,1,5,3)           -179.8007         calculate D2E/DX2 analytically  !
 ! D3    D(5,1,6,12)            25.0597         calculate D2E/DX2 analytically  !
 ! D4    D(5,1,6,13)           159.8861         calculate D2E/DX2 analytically  !
 ! D5    D(5,3,4,9)            -93.4793         calculate D2E/DX2 analytically  !
 ! D6    D(5,3,4,10)           147.0136         calculate D2E/DX2 analytically  !
 ! D7    D(5,3,4,11)            26.7414         calculate D2E/DX2 analytically  !
 ! D8    D(7,3,4,9)            144.7024         calculate D2E/DX2 analytically  !
 ! D9    D(7,3,4,10)            25.1953         calculate D2E/DX2 analytically  !
 ! D10   D(7,3,4,11)           -95.0769         calculate D2E/DX2 analytically  !
 ! D11   D(8,3,4,9)             29.0699         calculate D2E/DX2 analytically  !
 ! D12   D(8,3,4,10)           -90.4372         calculate D2E/DX2 analytically  !
 ! D13   D(8,3,4,11)           149.2906         calculate D2E/DX2 analytically  !
 ! D14   D(4,3,5,1)            -74.0052         calculate D2E/DX2 analytically  !
 ! D15   D(4,3,5,2)            107.0353         calculate D2E/DX2 analytically  !
 ! D16   D(7,3,5,1)             47.7089         calculate D2E/DX2 analytically  !
 ! D17   D(7,3,5,2)           -131.2507         calculate D2E/DX2 analytically  !
 ! D18   D(8,3,5,1)            163.5911         calculate D2E/DX2 analytically  !
 ! D19   D(8,3,5,2)            -15.3684         calculate D2E/DX2 analytically  !
 ! D20   D(1,6,12,13)          130.8049         calculate D2E/DX2 analytically  !
 --------------------------------------------------------------------------------
 Trust Radius=3.00D-01 FncErr=1.00D-07 GrdErr=1.00D-06 EigMax=2.50D+02 EigMin=1.00D-04
 Number of steps in this run=    100 maximum allowed number of steps=    100.
 GradGradGradGradGradGradGradGradGradGradGradGradGradGradGradGradGradGrad

 Leave Link  103 at Tue Apr  9 02:05:57 2019, MaxMem=   671088640 cpu:               0.2 elap:               0.0
 (Enter /shared/centos7/gaussian/g16/l202.exe)
                          Input orientation:                          
 ---------------------------------------------------------------------
 Center     Atomic      Atomic             Coordinates (Angstroms)
 Number     Number       Type             X           Y           Z
 ---------------------------------------------------------------------
      1          8           0        1.640105    0.015319    0.801999
      2          8           0        0.620011   -1.630581   -0.487824
      3          6           0       -0.416933   -0.941150    1.610955
      4          6           0        0.025805   -1.601866    2.885089
      5          6           0        0.620606   -0.914721    0.559581
      6          6           0        2.637675    0.040910   -0.217834
      7          1           0       -0.729334    0.099708    1.837004
      8          1           0       -1.326589   -1.465309    1.222627
      9          1           0       -0.256246   -2.681787    2.882885
     10          1           0       -0.462968   -1.117228    3.767183
     11          1           0        1.113075   -1.537406    3.023257
     12          1           0        2.272980   -0.305827   -1.191984
     13          1           0        3.188497    0.986788   -0.177334
 ---------------------------------------------------------------------
                    Distance matrix (angstroms):
                    1          2          3          4          5
     1  O    0.000000
     2  O    2.326633   0.000000
     3  C    2.408453   2.440377   0.000000
     4  C    3.092008   3.424974   1.501992   0.000000
     5  C    1.401113   1.268666   1.477353   2.496787   0.000000
     6  C    1.426836   2.633960   3.693175   4.375924   2.363509
     7  H    2.587005   3.196788   1.109990   2.136369   2.117359
     8  H    3.342223   2.596576   1.119381   2.147416   2.129400
     9  H    3.898796   3.637931   2.161815   1.116149   3.047808
    10  H    3.807610   4.420572   2.163895   1.118866   3.391733
    11  H    2.760924   3.546756   2.165881   1.097908   2.588428
    12  H    2.116515   2.232290   3.936462   4.832394   2.483761
    13  H    2.073731   3.680236   4.462515   5.107072   3.279153
                    6          7          8          9         10
     6  C    0.000000
     7  H    3.944942   0.000000
     8  H    4.478729   1.784222   0.000000
     9  H    5.040071   3.009052   2.319894   0.000000
    10  H    5.180312   2.297276   2.709569   1.809022   0.000000
    11  H    3.914097   2.735289   3.033055   1.790070   1.792732
    12  H    1.096448   4.284053   4.486829   5.352264   5.721636
    13  H    1.095321   4.493758   5.325285   5.889791   5.772286
                   11         12         13
    11  H    0.000000
    12  H    4.542072   0.000000
    13  H    4.574135   1.881100   0.000000
 Stoichiometry    C4H7O2(2)
 Framework group  C1[X(C4H7O2)]
 Deg. of freedom    33
 Full point group                 C1      NOp   1
 Largest Abelian subgroup         C1      NOp   1
 Largest concise Abelian subgroup C1      NOp   1
                         Standard orientation:                         
 ---------------------------------------------------------------------
 Center     Atomic      Atomic             Coordinates (Angstroms)
 Number     Number       Type             X           Y           Z
 ---------------------------------------------------------------------
      1          8           0        0.865588   -0.780114    0.196160
      2          8           0        0.597978    1.487167   -0.252215
      3          6           0       -1.307223    0.194351    0.556659
      4          6           0       -2.151156   -0.546857   -0.440521
      5          6           0        0.093450    0.387065    0.128232
      6          6           0        2.218706   -0.588774   -0.214110
      7          1           0       -1.318293   -0.360484    1.517967
      8          1           0       -1.773376    1.190870    0.763216
      9          1           0       -2.682532    0.169921   -1.111085
     10          1           0       -2.920549   -1.167810    0.083228
     11          1           0       -1.548953   -1.214882   -1.070201
     12          1           0        2.566072    0.444861   -0.099511
     13          1           0        2.846452   -1.393606    0.183268
 ---------------------------------------------------------------------
 Rotational constants (GHZ):           6.6999674           2.4724293           2.0028417
 Leave Link  202 at Tue Apr  9 02:05:57 2019, MaxMem=   671088640 cpu:               0.1 elap:               0.0
 (Enter /shared/centos7/gaussian/g16/l301.exe)
 Standard basis: 6-311+G(2df,2p) (5D, 7F)
 Ernie: Thresh=  0.10000D-02 Tol=  0.10000D-05 Strict=F.
 There are   297 symmetry adapted cartesian basis functions of A   symmetry.
 There are   267 symmetry adapted basis functions of A   symmetry.
   267 basis functions,   389 primitive gaussians,   297 cartesian basis functions
    24 alpha electrons       23 beta electrons
       nuclear repulsion energy       233.4715287635 Hartrees.
 IExCor= 4336 DFT=T Ex+Corr=M062X ExCW=0 ScaHFX=  0.540000
 ScaDFX=  1.000000  1.000000  1.000000  1.000000 ScalE2=  1.000000  1.000000
 IRadAn=      5 IRanWt=     -1 IRanGd=            0 ICorTp=0 IEmpDi=  4
 NAtoms=   13 NActive=   13 NUniq=   13 SFac= 1.00D+00 NAtFMM=   60 NAOKFM=F Big=F
 Integral buffers will be    131072 words long.
 Raffenetti 2 integral format.
 Two-electron integral symmetry is turned on.
 Leave Link  301 at Tue Apr  9 02:05:57 2019, MaxMem=   671088640 cpu:               0.8 elap:               0.1
 (Enter /shared/centos7/gaussian/g16/l302.exe)
 NPDir=0 NMtPBC=     1 NCelOv=     1 NCel=       1 NClECP=     1 NCelD=      1
         NCelK=      1 NCelE2=     1 NClLst=     1 CellRange=     0.0.
 One-electron integrals computed using PRISM.
 One-electron integral symmetry used in STVInt
 NBasis=   267 RedAO= T EigKep=  2.66D-05  NBF=   267
 NBsUse=   267 1.00D-06 EigRej= -1.00D+00 NBFU=   267
 Precomputing XC quadrature grid using
 IXCGrd= 4 IRadAn=           5 IRanWt=          -1 IRanGd=           0 AccXCQ= 0.00D+00.
 Generated NRdTot=       0 NPtTot=           0 NUsed=           0 NTot=          32
 NSgBfM=   297   297   297   297   297 MxSgAt=    13 MxSgA2=    13.
 Leave Link  302 at Tue Apr  9 02:05:58 2019, MaxMem=   671088640 cpu:               5.9 elap:               0.3
 (Enter /shared/centos7/gaussian/g16/l303.exe)
 DipDrv:  MaxL=1.
 Leave Link  303 at Tue Apr  9 02:05:58 2019, MaxMem=   671088640 cpu:               1.0 elap:               0.1
 (Enter /shared/centos7/gaussian/g16/l401.exe)
 ExpMin= 4.38D-02 ExpMax= 8.59D+03 ExpMxC= 1.30D+03 IAcc=3 IRadAn=         5 AccDes= 0.00D+00
 Harris functional with IExCor= 1009 and IRadAn=       5 diagonalized for initial guess.
 HarFok:  IExCor= 1009 AccDes= 0.00D+00 IRadAn=         5 IDoV= 1 UseB2=F ITyADJ=14
 ICtDFT=  3500011 ScaDFX=  1.000000  1.000000  1.000000  1.000000
 FoFCou: FMM=F IPFlag=           0 FMFlag=      100000 FMFlg1=           0
         NFxFlg=           0 DoJE=T BraDBF=F KetDBF=T FulRan=T
         wScrn=  0.000000 ICntrl=       500 IOpCl=  0 I1Cent=   200000004 NGrid=           0
         NMat0=    1 NMatS0=      1 NMatT0=    0 NMatD0=    1 NMtDS0=    0 NMtDT0=    0
 Petite list used in FoFCou.
 Harris En= -306.843837809894    
 JPrj=0 DoOrth=F DoCkMO=F.
 Initial guess <Sx>= 0.0000 <Sy>= 0.0000 <Sz>= 0.5000 <S**2>= 0.7500 S= 0.5000
 Leave Link  401 at Tue Apr  9 02:05:59 2019, MaxMem=   671088640 cpu:              19.3 elap:               1.0
 (Enter /shared/centos7/gaussian/g16/l502.exe)
 Integral symmetry usage will be decided dynamically.
 UHF open shell SCF:
 Using DIIS extrapolation, IDIIS=  1040.
 NGot=   671088640 LenX=   670903575 LenY=   670814925
 Requested convergence on RMS density matrix=1.00D-08 within 128 cycles.
 Requested convergence on MAX density matrix=1.00D-06.
 Requested convergence on             energy=1.00D-06.
 No special actions if energy rises.
 Fock matrices will be formed incrementally for  20 cycles.

 Cycle   1  Pass 1  IDiag  1:
 FoFJK:  IHMeth= 1 ICntrl=       0 DoSepK=F KAlg= 0 I1Cent=           0 FoldK=F
 IRaf= 960000000 NMat=       1 IRICut=       1 DoRegI=T DoRafI=F ISym2E= 0 IDoP0=0 IntGTp=1.
 FoFCou: FMM=F IPFlag=           0 FMFlag=      100000 FMFlg1=           0
         NFxFlg=           0 DoJE=F BraDBF=F KetDBF=F FulRan=T
         wScrn=  0.000000 ICntrl=         0 IOpCl=  1 I1Cent=           0 NGrid=           0
         NMat0=    1 NMatS0=      1 NMatT0=    0 NMatD0=    1 NMtDS0=    0 NMtDT0=    0
 Symmetry not used in FoFCou.
 E= -306.795852507524    
 DIIS: error= 1.71D-02 at cycle   1 NSaved=   1.
 NSaved= 1 IEnMin= 1 EnMin= -306.795852507524     IErMin= 1 ErrMin= 1.71D-02
 ErrMax= 1.71D-02  0.00D+00 EMaxC= 1.00D-01 BMatC= 1.02D+00 BMatP= 1.02D+00
 IDIUse=3 WtCom= 8.29D-01 WtEn= 1.71D-01
 Coeff-Com:  0.100D+01
 Coeff-En:   0.100D+01
 Coeff:      0.100D+01
 Gap=     0.285 Goal=   None    Shift=    0.000
 Gap=     0.226 Goal=   None    Shift=    0.000
 GapD=    0.226 DampG=1.000 DampE=0.500 DampFc=0.5000 IDamp=-1.
 Damping current iteration by 5.00D-01
 RMSDP=2.88D-03 MaxDP=1.06D-01              OVMax= 2.06D-01

 Cycle   2  Pass 1  IDiag  1:
 RMSU=  1.44D-03    CP:  9.94D-01
 E= -306.875694130080     Delta-E=       -0.079841622556 Rises=F Damp=T
 DIIS: error= 5.35D-03 at cycle   2 NSaved=   2.
 NSaved= 2 IEnMin= 2 EnMin= -306.875694130080     IErMin= 2 ErrMin= 5.35D-03
 ErrMax= 5.35D-03  0.00D+00 EMaxC= 1.00D-01 BMatC= 1.13D-01 BMatP= 1.02D+00
 IDIUse=3 WtCom= 9.46D-01 WtEn= 5.35D-02
 Coeff-Com:  0.527D-01 0.947D+00
 Coeff-En:   0.112D+00 0.888D+00
 Coeff:      0.559D-01 0.944D+00
 Gap=     0.383 Goal=   None    Shift=    0.000
 Gap=     0.333 Goal=   None    Shift=    0.000
 RMSDP=1.11D-03 MaxDP=7.57D-02 DE=-7.98D-02 OVMax= 1.42D-01

 Cycle   3  Pass 1  IDiag  1:
 RMSU=  1.01D-03    CP:  9.66D-01  7.62D-01
 E= -306.968066636388     Delta-E=       -0.092372506308 Rises=F Damp=F
 DIIS: error= 7.20D-03 at cycle   3 NSaved=   3.
 NSaved= 3 IEnMin= 3 EnMin= -306.968066636388     IErMin= 2 ErrMin= 5.35D-03
 ErrMax= 7.20D-03  0.00D+00 EMaxC= 1.00D-01 BMatC= 9.22D-02 BMatP= 1.13D-01
 IDIUse=3 WtCom= 9.28D-01 WtEn= 7.20D-02
 Coeff-Com: -0.674D-01 0.494D+00 0.574D+00
 Coeff-En:   0.000D+00 0.000D+00 0.100D+01
 Coeff:     -0.626D-01 0.458D+00 0.604D+00
 Gap=     0.286 Goal=   None    Shift=    0.000
 Gap=     0.311 Goal=   None    Shift=    0.000
 RMSDP=4.82D-04 MaxDP=1.64D-02 DE=-9.24D-02 OVMax= 6.34D-02

 Cycle   4  Pass 1  IDiag  1:
 RMSU=  3.94D-04    CP:  9.68D-01  9.16D-01  8.36D-01
 E= -306.983199234910     Delta-E=       -0.015132598522 Rises=F Damp=F
 DIIS: error= 2.30D-03 at cycle   4 NSaved=   4.
 NSaved= 4 IEnMin= 4 EnMin= -306.983199234910     IErMin= 4 ErrMin= 2.30D-03
 ErrMax= 2.30D-03  0.00D+00 EMaxC= 1.00D-01 BMatC= 1.40D-02 BMatP= 9.22D-02
 IDIUse=3 WtCom= 9.77D-01 WtEn= 2.30D-02
 Coeff-Com: -0.309D-01 0.746D-01 0.313D+00 0.644D+00
 Coeff-En:   0.000D+00 0.000D+00 0.110D+00 0.890D+00
 Coeff:     -0.302D-01 0.729D-01 0.308D+00 0.649D+00
 Gap=     0.288 Goal=   None    Shift=    0.000
 Gap=     0.312 Goal=   None    Shift=    0.000
 RMSDP=1.73D-04 MaxDP=8.27D-03 DE=-1.51D-02 OVMax= 1.50D-02

 Cycle   5  Pass 1  IDiag  1:
 RMSU=  9.95D-05    CP:  9.64D-01  8.74D-01  9.26D-01  7.94D-01
 E= -306.986076843935     Delta-E=       -0.002877609026 Rises=F Damp=F
 DIIS: error= 5.02D-04 at cycle   5 NSaved=   5.
 NSaved= 5 IEnMin= 5 EnMin= -306.986076843935     IErMin= 5 ErrMin= 5.02D-04
 ErrMax= 5.02D-04  0.00D+00 EMaxC= 1.00D-01 BMatC= 3.22D-04 BMatP= 1.40D-02
 IDIUse=3 WtCom= 9.95D-01 WtEn= 5.02D-03
 Coeff-Com: -0.402D-02-0.265D-02 0.560D-01 0.172D+00 0.778D+00
 Coeff-En:   0.000D+00 0.000D+00 0.000D+00 0.000D+00 0.100D+01
 Coeff:     -0.400D-02-0.264D-02 0.558D-01 0.171D+00 0.780D+00
 Gap=     0.289 Goal=   None    Shift=    0.000
 Gap=     0.314 Goal=   None    Shift=    0.000
 RMSDP=4.77D-05 MaxDP=2.89D-03 DE=-2.88D-03 OVMax= 7.21D-03

 Cycle   6  Pass 1  IDiag  1:
 RMSU=  3.89D-05    CP:  9.63D-01  8.69D-01  9.44D-01  8.26D-01  1.12D+00
 E= -306.986221635799     Delta-E=       -0.000144791863 Rises=F Damp=F
 DIIS: error= 3.58D-04 at cycle   6 NSaved=   6.
 NSaved= 6 IEnMin= 6 EnMin= -306.986221635799     IErMin= 6 ErrMin= 3.58D-04
 ErrMax= 3.58D-04  0.00D+00 EMaxC= 1.00D-01 BMatC= 1.37D-04 BMatP= 3.22D-04
 IDIUse=3 WtCom= 9.96D-01 WtEn= 3.58D-03
 Coeff-Com:  0.487D-02-0.185D-01-0.434D-01-0.774D-01 0.322D+00 0.812D+00
 Coeff-En:   0.000D+00 0.000D+00 0.000D+00 0.000D+00 0.000D+00 0.100D+01
 Coeff:      0.485D-02-0.184D-01-0.433D-01-0.771D-01 0.321D+00 0.813D+00
 Gap=     0.290 Goal=   None    Shift=    0.000
 Gap=     0.314 Goal=   None    Shift=    0.000
 RMSDP=3.36D-05 MaxDP=1.48D-03 DE=-1.45D-04 OVMax= 4.51D-03

 Cycle   7  Pass 1  IDiag  1:
 RMSU=  2.01D-05    CP:  9.63D-01  8.66D-01  9.54D-01  8.45D-01  1.34D+00
                    CP:  1.23D+00
 E= -306.986279472559     Delta-E=       -0.000057836760 Rises=F Damp=F
 DIIS: error= 1.23D-04 at cycle   7 NSaved=   7.
 NSaved= 7 IEnMin= 7 EnMin= -306.986279472559     IErMin= 7 ErrMin= 1.23D-04
 ErrMax= 1.23D-04  0.00D+00 EMaxC= 1.00D-01 BMatC= 2.42D-05 BMatP= 1.37D-04
 IDIUse=3 WtCom= 9.99D-01 WtEn= 1.23D-03
 Coeff-Com:  0.343D-02-0.654D-02-0.336D-01-0.881D-01-0.818D-01 0.326D+00
 Coeff-Com:  0.881D+00
 Coeff-En:   0.000D+00 0.000D+00 0.000D+00 0.000D+00 0.000D+00 0.000D+00
 Coeff-En:   0.100D+01
 Coeff:      0.342D-02-0.653D-02-0.336D-01-0.880D-01-0.817D-01 0.325D+00
 Coeff:      0.881D+00
 Gap=     0.291 Goal=   None    Shift=    0.000
 Gap=     0.315 Goal=   None    Shift=    0.000
 RMSDP=1.85D-05 MaxDP=7.68D-04 DE=-5.78D-05 OVMax= 3.06D-03

 Cycle   8  Pass 1  IDiag  1:
 RMSU=  8.91D-06    CP:  9.63D-01  8.65D-01  9.58D-01  8.50D-01  1.46D+00
                    CP:  1.45D+00  1.25D+00
 E= -306.986293301184     Delta-E=       -0.000013828625 Rises=F Damp=F
 DIIS: error= 3.64D-05 at cycle   8 NSaved=   8.
 NSaved= 8 IEnMin= 8 EnMin= -306.986293301184     IErMin= 8 ErrMin= 3.64D-05
 ErrMax= 3.64D-05  0.00D+00 EMaxC= 1.00D-01 BMatC= 2.47D-06 BMatP= 2.42D-05
 IDIUse=1 WtCom= 1.00D+00 WtEn= 0.00D+00
 Coeff-Com:  0.268D-03 0.431D-03-0.348D-02-0.149D-01-0.640D-01-0.982D-02
 Coeff-Com:  0.263D+00 0.829D+00
 Coeff:      0.268D-03 0.431D-03-0.348D-02-0.149D-01-0.640D-01-0.982D-02
 Coeff:      0.263D+00 0.829D+00
 Gap=     0.291 Goal=   None    Shift=    0.000
 Gap=     0.315 Goal=   None    Shift=    0.000
 RMSDP=4.82D-06 MaxDP=3.41D-04 DE=-1.38D-05 OVMax= 6.58D-04

 Cycle   9  Pass 1  IDiag  1:
 RMSU=  2.66D-06    CP:  9.63D-01  8.66D-01  9.58D-01  8.49D-01  1.47D+00
                    CP:  1.51D+00  1.39D+00  1.10D+00
 E= -306.986294327593     Delta-E=       -0.000001026409 Rises=F Damp=F
 DIIS: error= 9.72D-06 at cycle   9 NSaved=   9.
 NSaved= 9 IEnMin= 9 EnMin= -306.986294327593     IErMin= 9 ErrMin= 9.72D-06
 ErrMax= 9.72D-06  0.00D+00 EMaxC= 1.00D-01 BMatC= 1.91D-07 BMatP= 2.47D-06
 IDIUse=1 WtCom= 1.00D+00 WtEn= 0.00D+00
 Coeff-Com: -0.441D-03 0.946D-03 0.353D-02 0.941D-02 0.680D-03-0.355D-01
 Coeff-Com: -0.764D-01 0.806D-01 0.102D+01
 Coeff:     -0.441D-03 0.946D-03 0.353D-02 0.941D-02 0.680D-03-0.355D-01
 Coeff:     -0.764D-01 0.806D-01 0.102D+01
 Gap=     0.291 Goal=   None    Shift=    0.000
 Gap=     0.315 Goal=   None    Shift=    0.000
 RMSDP=1.87D-06 MaxDP=9.54D-05 DE=-1.03D-06 OVMax= 2.23D-04

 Cycle  10  Pass 1  IDiag  1:
 RMSU=  1.09D-06    CP:  9.63D-01  8.66D-01  9.57D-01  8.49D-01  1.47D+00
                    CP:  1.52D+00  1.43D+00  1.19D+00  1.19D+00
 E= -306.986294440520     Delta-E=       -0.000000112927 Rises=F Damp=F
 DIIS: error= 3.25D-06 at cycle  10 NSaved=  10.
 NSaved=10 IEnMin=10 EnMin= -306.986294440520     IErMin=10 ErrMin= 3.25D-06
 ErrMax= 3.25D-06  0.00D+00 EMaxC= 1.00D-01 BMatC= 2.13D-08 BMatP= 1.91D-07
 IDIUse=1 WtCom= 1.00D+00 WtEn= 0.00D+00
 Coeff-Com: -0.686D-04 0.855D-04 0.478D-03 0.210D-02 0.463D-02-0.243D-02
 Coeff-Com: -0.269D-01-0.535D-01 0.952D-01 0.980D+00
 Coeff:     -0.686D-04 0.855D-04 0.478D-03 0.210D-02 0.463D-02-0.243D-02
 Coeff:     -0.269D-01-0.535D-01 0.952D-01 0.980D+00
 Gap=     0.291 Goal=   None    Shift=    0.000
 Gap=     0.315 Goal=   None    Shift=    0.000
 RMSDP=6.44D-07 MaxDP=4.10D-05 DE=-1.13D-07 OVMax= 9.09D-05

 Cycle  11  Pass 1  IDiag  1:
 RMSU=  3.13D-07    CP:  9.63D-01  8.66D-01  9.57D-01  8.49D-01  1.47D+00
                    CP:  1.52D+00  1.43D+00  1.21D+00  1.32D+00  1.16D+00
 E= -306.986294456522     Delta-E=       -0.000000016002 Rises=F Damp=F
 DIIS: error= 1.26D-06 at cycle  11 NSaved=  11.
 NSaved=11 IEnMin=11 EnMin= -306.986294456522     IErMin=11 ErrMin= 1.26D-06
 ErrMax= 1.26D-06  0.00D+00 EMaxC= 1.00D-01 BMatC= 4.39D-09 BMatP= 2.13D-08
 IDIUse=1 WtCom= 1.00D+00 WtEn= 0.00D+00
 Coeff-Com:  0.583D-04-0.132D-03-0.525D-03-0.122D-02 0.504D-03 0.482D-02
 Coeff-Com:  0.920D-02-0.166D-01-0.164D+00 0.995D-01 0.107D+01
 Coeff:      0.583D-04-0.132D-03-0.525D-03-0.122D-02 0.504D-03 0.482D-02
 Coeff:      0.920D-02-0.166D-01-0.164D+00 0.995D-01 0.107D+01
 Gap=     0.291 Goal=   None    Shift=    0.000
 Gap=     0.315 Goal=   None    Shift=    0.000
 RMSDP=2.94D-07 MaxDP=1.08D-05 DE=-1.60D-08 OVMax= 4.33D-05

 Cycle  12  Pass 1  IDiag  1:
 RMSU=  1.33D-07    CP:  9.63D-01  8.66D-01  9.57D-01  8.49D-01  1.47D+00
                    CP:  1.52D+00  1.43D+00  1.22D+00  1.35D+00  1.36D+00
                    CP:  1.35D+00
 E= -306.986294460546     Delta-E=       -0.000000004025 Rises=F Damp=F
 DIIS: error= 7.40D-07 at cycle  12 NSaved=  12.
 NSaved=12 IEnMin=12 EnMin= -306.986294460546     IErMin=12 ErrMin= 7.40D-07
 ErrMax= 7.40D-07  0.00D+00 EMaxC= 1.00D-01 BMatC= 7.61D-10 BMatP= 4.39D-09
 IDIUse=1 WtCom= 1.00D+00 WtEn= 0.00D+00
 Coeff-Com:  0.195D-04-0.334D-04-0.178D-03-0.541D-03-0.580D-03 0.122D-02
 Coeff-Com:  0.574D-02 0.583D-02-0.436D-01-0.123D+00 0.182D+00 0.974D+00
 Coeff:      0.195D-04-0.334D-04-0.178D-03-0.541D-03-0.580D-03 0.122D-02
 Coeff:      0.574D-02 0.583D-02-0.436D-01-0.123D+00 0.182D+00 0.974D+00
 Gap=     0.291 Goal=   None    Shift=    0.000
 Gap=     0.315 Goal=   None    Shift=    0.000
 RMSDP=1.04D-07 MaxDP=5.00D-06 DE=-4.02D-09 OVMax= 1.87D-05

 Cycle  13  Pass 1  IDiag  1:
 RMSU=  6.44D-08    CP:  9.63D-01  8.66D-01  9.57D-01  8.49D-01  1.47D+00
                    CP:  1.51D+00  1.43D+00  1.22D+00  1.36D+00  1.41D+00
                    CP:  1.52D+00  1.21D+00
 E= -306.986294461256     Delta-E=       -0.000000000710 Rises=F Damp=F
 DIIS: error= 3.54D-07 at cycle  13 NSaved=  13.
 NSaved=13 IEnMin=13 EnMin= -306.986294461256     IErMin=13 ErrMin= 3.54D-07
 ErrMax= 3.54D-07  0.00D+00 EMaxC= 1.00D-01 BMatC= 1.97D-10 BMatP= 7.61D-10
 IDIUse=1 WtCom= 1.00D+00 WtEn= 0.00D+00
 Coeff-Com: -0.103D-04 0.234D-04 0.878D-04 0.180D-03-0.184D-03-0.826D-03
 Coeff-Com: -0.111D-02 0.445D-02 0.281D-01-0.482D-01-0.211D+00 0.228D+00
 Coeff-Com:  0.100D+01
 Coeff:     -0.103D-04 0.234D-04 0.878D-04 0.180D-03-0.184D-03-0.826D-03
 Coeff:     -0.111D-02 0.445D-02 0.281D-01-0.482D-01-0.211D+00 0.228D+00
 Coeff:      0.100D+01
 Gap=     0.291 Goal=   None    Shift=    0.000
 Gap=     0.315 Goal=   None    Shift=    0.000
 RMSDP=5.74D-08 MaxDP=2.91D-06 DE=-7.10D-10 OVMax= 1.09D-05

 Cycle  14  Pass 1  IDiag  1:
 RMSU=  2.96D-08    CP:  9.63D-01  8.66D-01  9.57D-01  8.49D-01  1.47D+00
                    CP:  1.51D+00  1.43D+00  1.22D+00  1.36D+00  1.41D+00
                    CP:  1.60D+00  1.47D+00  1.33D+00
 E= -306.986294461457     Delta-E=       -0.000000000201 Rises=F Damp=F
 DIIS: error= 1.58D-07 at cycle  14 NSaved=  14.
 NSaved=14 IEnMin=14 EnMin= -306.986294461457     IErMin=14 ErrMin= 1.58D-07
 ErrMax= 1.58D-07  0.00D+00 EMaxC= 1.00D-01 BMatC= 3.53D-11 BMatP= 1.97D-10
 IDIUse=1 WtCom= 1.00D+00 WtEn= 0.00D+00
 Coeff-Com: -0.304D-05 0.590D-05 0.339D-04 0.913D-04 0.958D-04-0.257D-03
 Coeff-Com: -0.947D-03-0.991D-03 0.929D-02 0.212D-01-0.365D-01-0.180D+00
 Coeff-Com:  0.402D-01 0.115D+01
 Coeff:     -0.304D-05 0.590D-05 0.339D-04 0.913D-04 0.958D-04-0.257D-03
 Coeff:     -0.947D-03-0.991D-03 0.929D-02 0.212D-01-0.365D-01-0.180D+00
 Coeff:      0.402D-01 0.115D+01
 Gap=     0.291 Goal=   None    Shift=    0.000
 Gap=     0.315 Goal=   None    Shift=    0.000
 RMSDP=2.99D-08 MaxDP=1.66D-06 DE=-2.01D-10 OVMax= 6.69D-06

 Cycle  15  Pass 1  IDiag  1:
 RMSU=  1.41D-08    CP:  9.63D-01  8.66D-01  9.57D-01  8.49D-01  1.47D+00
                    CP:  1.51D+00  1.43D+00  1.22D+00  1.36D+00  1.41D+00
                    CP:  1.61D+00  1.55D+00  1.61D+00  1.48D+00
 E= -306.986294461507     Delta-E=       -0.000000000051 Rises=F Damp=F
 DIIS: error= 9.71D-08 at cycle  15 NSaved=  15.
 NSaved=15 IEnMin=15 EnMin= -306.986294461507     IErMin=15 ErrMin= 9.71D-08
 ErrMax= 9.71D-08  0.00D+00 EMaxC= 1.00D-01 BMatC= 8.59D-12 BMatP= 3.53D-11
 IDIUse=1 WtCom= 1.00D+00 WtEn= 0.00D+00
 Coeff-Com:  0.215D-05-0.491D-05-0.134D-04-0.310D-04 0.401D-04 0.117D-03
 Coeff-Com:  0.217D-03-0.861D-03-0.503D-02 0.917D-02 0.422D-01-0.581D-01
 Coeff-Com: -0.186D+00-0.869D-02 0.121D+01
 Coeff:      0.215D-05-0.491D-05-0.134D-04-0.310D-04 0.401D-04 0.117D-03
 Coeff:      0.217D-03-0.861D-03-0.503D-02 0.917D-02 0.422D-01-0.581D-01
 Coeff:     -0.186D+00-0.869D-02 0.121D+01
 Gap=     0.291 Goal=   None    Shift=    0.000
 Gap=     0.315 Goal=   None    Shift=    0.000
 RMSDP=1.77D-08 MaxDP=9.56D-07 DE=-5.07D-11 OVMax= 3.85D-06

 Cycle  16  Pass 1  IDiag  1:
 RMSU=  5.75D-09    CP:  9.63D-01  8.66D-01  9.57D-01  8.49D-01  1.47D+00
                    CP:  1.51D+00  1.43D+00  1.22D+00  1.36D+00  1.41D+00
                    CP:  1.61D+00  1.57D+00  1.74D+00  1.85D+00  1.56D+00
 E= -306.986294461523     Delta-E=       -0.000000000016 Rises=F Damp=F
 DIIS: error= 4.21D-08 at cycle  16 NSaved=  16.
 NSaved=16 IEnMin=16 EnMin= -306.986294461523     IErMin=16 ErrMin= 4.21D-08
 ErrMax= 4.21D-08  0.00D+00 EMaxC= 1.00D-01 BMatC= 2.29D-12 BMatP= 8.59D-12
 IDIUse=1 WtCom= 1.00D+00 WtEn= 0.00D+00
 Coeff-Com:  0.122D-05-0.249D-05-0.116D-04-0.293D-04-0.965D-05 0.884D-04
 Coeff-Com:  0.290D-03 0.135D-04-0.357D-02-0.274D-02 0.207D-01 0.267D-01
 Coeff-Com: -0.558D-01-0.296D+00 0.325D+00 0.986D+00
 Coeff:      0.122D-05-0.249D-05-0.116D-04-0.293D-04-0.965D-05 0.884D-04
 Coeff:      0.290D-03 0.135D-04-0.357D-02-0.274D-02 0.207D-01 0.267D-01
 Coeff:     -0.558D-01-0.296D+00 0.325D+00 0.986D+00
 Gap=     0.291 Goal=   None    Shift=    0.000
 Gap=     0.315 Goal=   None    Shift=    0.000
 RMSDP=8.38D-09 MaxDP=4.29D-07 DE=-1.60D-11 OVMax= 1.96D-06

 SCF Done:  E(UM062X) =  -306.986294462     A.U. after   16 cycles
            NFock= 16  Conv=0.84D-08     -V/T= 2.0052
 <Sx>= 0.0000 <Sy>= 0.0000 <Sz>= 0.5000 <S**2>= 0.7545 S= 0.5022
 <L.S>= 0.000000000000E+00
 KE= 3.053878495844D+02 PE=-1.184722590232D+03 EE= 3.388769174228D+02
 Annihilation of the first spin contaminant:
 S**2 before annihilation     0.7545,   after     0.7500
 Leave Link  502 at Tue Apr  9 02:06:49 2019, MaxMem=   671088640 cpu:            1008.5 elap:              50.5
 (Enter /shared/centos7/gaussian/g16/l801.exe)
 DoSCS=F DFT=T ScalE2(SS,OS)=  1.000000  1.000000
 Range of M.O.s used for correlation:     1   267
 NBasis=   267 NAE=    24 NBE=    23 NFC=     0 NFV=     0
 NROrb=    267 NOA=    24 NOB=    23 NVA=   243 NVB=   244

 **** Warning!!: The largest alpha MO coefficient is  0.48214939D+02


 **** Warning!!: The largest beta MO coefficient is  0.47011111D+02

 Leave Link  801 at Tue Apr  9 02:06:49 2019, MaxMem=   671088640 cpu:               0.4 elap:               0.0
 (Enter /shared/centos7/gaussian/g16/l1101.exe)
 Using compressed storage, NAtomX=    13.
 Will process     14 centers per pass.
 Leave Link 1101 at Tue Apr  9 02:06:50 2019, MaxMem=   671088640 cpu:               6.8 elap:               0.3
 (Enter /shared/centos7/gaussian/g16/l1102.exe)
 Symmetrizing basis deriv contribution to polar:
 IMax=3 JMax=2 DiffMx= 0.00D+00
 Leave Link 1102 at Tue Apr  9 02:06:50 2019, MaxMem=   671088640 cpu:               0.6 elap:               0.1
 (Enter /shared/centos7/gaussian/g16/l1110.exe)
 Forming Gx(P) for the SCF density, NAtomX=    13.
 Integral derivatives from FoFJK, PRISM(SPDF).
 Do as many integral derivatives as possible in FoFJK.
 G2DrvN: MDV=     671087568.
 G2DrvN: will do    14 centers at a time, making    1 passes.
 Calling FoFCou, ICntrl=  3107 FMM=F I1Cent=   0 AccDes= 0.00D+00.
 FoFJK:  IHMeth= 1 ICntrl=    3107 DoSepK=F KAlg= 0 I1Cent=           0 FoldK=F
 IRaf=         0 NMat=       1 IRICut=       1 DoRegI=T DoRafI=F ISym2E= 0 IDoP0=0 IntGTp=1.
 FoFCou: FMM=F IPFlag=           0 FMFlag=      100000 FMFlg1=           0
         NFxFlg=           0 DoJE=F BraDBF=F KetDBF=F FulRan=T
         wScrn=  0.000000 ICntrl=      3107 IOpCl=  1 I1Cent=           0 NGrid=           0
         NMat0=    1 NMatS0=      1 NMatT0=    0 NMatD0=    1 NMtDS0=    0 NMtDT0=    0
 Symmetry not used in FoFCou.
 End of G2Drv F.D. properties file   721 does not exist.
 End of G2Drv F.D. properties file   722 does not exist.
 End of G2Drv F.D. properties file   788 does not exist.
 Leave Link 1110 at Tue Apr  9 02:08:08 2019, MaxMem=   671088640 cpu:            1560.5 elap:              78.0
 (Enter /shared/centos7/gaussian/g16/l1002.exe)
 Minotr:  UHF open shell wavefunction.
          IDoAtm=1111111111111
          Direct CPHF calculation.
          Differentiating once with respect to nuclear coordinates.
          Requested convergence is 1.0D-08 RMS, and 1.0D-07 maximum.
          Secondary convergence is 1.0D-12 RMS, and 1.0D-12 maximum.
          NewPWx=T KeepS1=F KeepF1=F KeepIn=T MapXYZ=F SortEE=F KeepMc=T.
         3966 words used for storage of precomputed grid.
 Two-electron integrals replicated using symmetry.
          MDV=     671088640 using IRadAn=       1.
          Solving linear equations simultaneously, MaxMat=     380.
 FoF2E skips out because all densities are zero.
 CalDSu exits because no D1Ps are significant.
 FoFJK:  IHMeth= 1 ICntrl=       0 DoSepK=F KAlg= 0 I1Cent=           0 FoldK=F
 IRaf= 960000000 NMat=      39 IRICut=      97 DoRegI=T DoRafI=T ISym2E= 2 IDoP0=3 IntGTp=3.
 FoFCou: FMM=F IPFlag=           0 FMFlag=      100000 FMFlg1=           0
         NFxFlg=           0 DoJE=F BraDBF=F KetDBF=F FulRan=T
         wScrn=  0.000000 ICntrl=         0 IOpCl=  1 I1Cent=           0 NGrid=           0
         NMat0=   39 NMatS0=     39 NMatT0=    0 NMatD0=   39 NMtDS0=    0 NMtDT0=    0
 Integrals replicated using symmetry in FoFCou.
 Raff kept on since  93.23% of shell-pairs survive, threshold=   0.20 IRatSp=93.
          There are    42 degrees of freedom in the 1st order CPHF.  IDoFFX=6 NUNeed=     0.
     36 vectors produced by pass  0 Test12= 2.72D-14 2.38D-09 XBig12= 1.52D-01 8.42D-02.
 AX will form    36 AO Fock derivatives at one time.
     36 vectors produced by pass  1 Test12= 2.72D-14 2.38D-09 XBig12= 2.30D-02 3.48D-02.
     36 vectors produced by pass  2 Test12= 2.72D-14 2.38D-09 XBig12= 9.18D-04 8.14D-03.
     36 vectors produced by pass  3 Test12= 2.72D-14 2.38D-09 XBig12= 1.49D-05 5.25D-04.
     36 vectors produced by pass  4 Test12= 2.72D-14 2.38D-09 XBig12= 2.00D-07 4.66D-05.
     36 vectors produced by pass  5 Test12= 2.72D-14 2.38D-09 XBig12= 2.81D-09 5.72D-06.
     33 vectors produced by pass  6 Test12= 2.72D-14 2.38D-09 XBig12= 2.77D-11 5.13D-07.
     18 vectors produced by pass  7 Test12= 2.72D-14 2.38D-09 XBig12= 2.26D-13 4.87D-08.
      2 vectors produced by pass  8 Test12= 2.72D-14 2.38D-09 XBig12= 1.70D-15 3.64D-09.
 InvSVY:  IOpt=1 It=  1 EMax= 2.00D-15
 Solved reduced A of dimension   269 with    36 vectors.
 End of Minotr F.D. properties file   721 does not exist.
 End of Minotr F.D. properties file   722 does not exist.
 End of Minotr F.D. properties file   788 does not exist.
 Leave Link 1002 at Tue Apr  9 02:10:12 2019, MaxMem=   671088640 cpu:            2471.3 elap:             123.6
 (Enter /shared/centos7/gaussian/g16/l601.exe)
 Copying SCF densities to generalized density rwf, IOpCl= 1 IROHF=0.

 **********************************************************************

            Population analysis using the SCF density.

 **********************************************************************

 Orbital symmetries:
 Alpha Orbitals:
       Occupied  (A) (A) (A) (A) (A) (A) (A) (A) (A) (A) (A) (A)
                 (A) (A) (A) (A) (A) (A) (A) (A) (A) (A) (A) (A)
       Virtual   (A) (A) (A) (A) (A) (A) (A) (A) (A) (A) (A) (A)
                 (A) (A) (A) (A) (A) (A) (A) (A) (A) (A) (A) (A)
                 (A) (A) (A) (A) (A) (A) (A) (A) (A) (A) (A) (A)
                 (A) (A) (A) (A) (A) (A) (A) (A) (A) (A) (A) (A)
                 (A) (A) (A) (A) (A) (A) (A) (A) (A) (A) (A) (A)
                 (A) (A) (A) (A) (A) (A) (A) (A) (A) (A) (A) (A)
                 (A) (A) (A) (A) (A) (A) (A) (A) (A) (A) (A) (A)
                 (A) (A) (A) (A) (A) (A) (A) (A) (A) (A) (A) (A)
                 (A) (A) (A) (A) (A) (A) (A) (A) (A) (A) (A) (A)
                 (A) (A) (A) (A) (A) (A) (A) (A) (A) (A) (A) (A)
                 (A) (A) (A) (A) (A) (A) (A) (A) (A) (A) (A) (A)
                 (A) (A) (A) (A) (A) (A) (A) (A) (A) (A) (A) (A)
                 (A) (A) (A) (A) (A) (A) (A) (A) (A) (A) (A) (A)
                 (A) (A) (A) (A) (A) (A) (A) (A) (A) (A) (A) (A)
                 (A) (A) (A) (A) (A) (A) (A) (A) (A) (A) (A) (A)
                 (A) (A) (A) (A) (A) (A) (A) (A) (A) (A) (A) (A)
                 (A) (A) (A) (A) (A) (A) (A) (A) (A) (A) (A) (A)
                 (A) (A) (A) (A) (A) (A) (A) (A) (A) (A) (A) (A)
                 (A) (A) (A) (A) (A) (A) (A) (A) (A) (A) (A) (A)
                 (A) (A) (A) (A) (A) (A) (A) (A) (A) (A) (A) (A)
                 (A) (A) (A)
 Beta  Orbitals:
       Occupied  (A) (A) (A) (A) (A) (A) (A) (A) (A) (A) (A) (A)
                 (A) (A) (A) (A) (A) (A) (A) (A) (A) (A) (A)
       Virtual   (A) (A) (A) (A) (A) (A) (A) (A) (A) (A) (A) (A)
                 (A) (A) (A) (A) (A) (A) (A) (A) (A) (A) (A) (A)
                 (A) (A) (A) (A) (A) (A) (A) (A) (A) (A) (A) (A)
                 (A) (A) (A) (A) (A) (A) (A) (A) (A) (A) (A) (A)
                 (A) (A) (A) (A) (A) (A) (A) (A) (A) (A) (A) (A)
                 (A) (A) (A) (A) (A) (A) (A) (A) (A) (A) (A) (A)
                 (A) (A) (A) (A) (A) (A) (A) (A) (A) (A) (A) (A)
                 (A) (A) (A) (A) (A) (A) (A) (A) (A) (A) (A) (A)
                 (A) (A) (A) (A) (A) (A) (A) (A) (A) (A) (A) (A)
                 (A) (A) (A) (A) (A) (A) (A) (A) (A) (A) (A) (A)
                 (A) (A) (A) (A) (A) (A) (A) (A) (A) (A) (A) (A)
                 (A) (A) (A) (A) (A) (A) (A) (A) (A) (A) (A) (A)
                 (A) (A) (A) (A) (A) (A) (A) (A) (A) (A) (A) (A)
                 (A) (A) (A) (A) (A) (A) (A) (A) (A) (A) (A) (A)
                 (A) (A) (A) (A) (A) (A) (A) (A) (A) (A) (A) (A)
                 (A) (A) (A) (A) (A) (A) (A) (A) (A) (A) (A) (A)
                 (A) (A) (A) (A) (A) (A) (A) (A) (A) (A) (A) (A)
                 (A) (A) (A) (A) (A) (A) (A) (A) (A) (A) (A) (A)
                 (A) (A) (A) (A) (A) (A) (A) (A) (A) (A) (A) (A)
                 (A) (A) (A) (A) (A) (A) (A) (A) (A) (A) (A) (A)
                 (A) (A) (A) (A)
 The electronic state is 2-A.
 Alpha  occ. eigenvalues --  -19.69573 -19.62616 -10.69208 -10.61017 -10.56531
 Alpha  occ. eigenvalues --  -10.54981  -1.22692  -1.12650  -0.91004  -0.80921
 Alpha  occ. eigenvalues --   -0.73916  -0.65196  -0.59399  -0.57441  -0.55131
 Alpha  occ. eigenvalues --   -0.52284  -0.50605  -0.47130  -0.45040  -0.44214
 Alpha  occ. eigenvalues --   -0.42012  -0.40970  -0.36166  -0.28682
 Alpha virt. eigenvalues --    0.00446   0.02368   0.03363   0.03405   0.04212
 Alpha virt. eigenvalues --    0.05001   0.06140   0.06899   0.08074   0.08338
 Alpha virt. eigenvalues --    0.09316   0.10269   0.10962   0.12841   0.13282
 Alpha virt. eigenvalues --    0.15136   0.16217   0.18009   0.19640   0.20027
 Alpha virt. eigenvalues --    0.20883   0.22123   0.23488   0.24031   0.24808
 Alpha virt. eigenvalues --    0.25940   0.26603   0.28938   0.29289   0.30984
 Alpha virt. eigenvalues --    0.32033   0.32951   0.34989   0.36081   0.36786
 Alpha virt. eigenvalues --    0.40049   0.41780   0.43758   0.45678   0.46860
 Alpha virt. eigenvalues --    0.48445   0.49991   0.51378   0.52125   0.54047
 Alpha virt. eigenvalues --    0.55110   0.57115   0.57943   0.58650   0.59311
 Alpha virt. eigenvalues --    0.60619   0.62724   0.63505   0.65050   0.65922
 Alpha virt. eigenvalues --    0.66963   0.69100   0.72191   0.75224   0.77323
 Alpha virt. eigenvalues --    0.80258   0.81944   0.85279   0.87410   0.88292
 Alpha virt. eigenvalues --    0.90155   0.91723   0.94687   0.95145   0.99013
 Alpha virt. eigenvalues --    1.00454   1.02763   1.05068   1.08666   1.11182
 Alpha virt. eigenvalues --    1.12469   1.13949   1.15086   1.15896   1.17565
 Alpha virt. eigenvalues --    1.19082   1.19914   1.20562   1.22277   1.24283
 Alpha virt. eigenvalues --    1.26050   1.27369   1.28183   1.30428   1.32815
 Alpha virt. eigenvalues --    1.33365   1.36150   1.38240   1.38709   1.41328
 Alpha virt. eigenvalues --    1.43903   1.45384   1.46687   1.48196   1.50432
 Alpha virt. eigenvalues --    1.52162   1.53606   1.58044   1.59651   1.60789
 Alpha virt. eigenvalues --    1.64358   1.65624   1.67628   1.69469   1.79162
 Alpha virt. eigenvalues --    1.81555   1.86724   2.02338   2.07157   2.12212
 Alpha virt. eigenvalues --    2.27107   2.28142   2.40227   2.42550   2.45568
 Alpha virt. eigenvalues --    2.48953   2.51584   2.56282   2.59443   2.65903
 Alpha virt. eigenvalues --    2.68112   2.76035   2.76748   2.80285   2.82641
 Alpha virt. eigenvalues --    2.84736   2.88710   2.94102   2.95411   2.96219
 Alpha virt. eigenvalues --    2.98353   2.99860   3.01431   3.04097   3.06603
 Alpha virt. eigenvalues --    3.07022   3.08451   3.12933   3.14350   3.15959
 Alpha virt. eigenvalues --    3.17389   3.19398   3.23026   3.24383   3.27076
 Alpha virt. eigenvalues --    3.30099   3.30241   3.32505   3.33413   3.34864
 Alpha virt. eigenvalues --    3.40115   3.41345   3.43452   3.46563   3.50937
 Alpha virt. eigenvalues --    3.51205   3.53044   3.56912   3.57629   3.59445
 Alpha virt. eigenvalues --    3.65253   3.70864   3.71654   3.74874   3.77774
 Alpha virt. eigenvalues --    3.80009   3.82971   3.85520   3.86775   3.87943
 Alpha virt. eigenvalues --    3.94152   3.97644   3.98057   4.02159   4.04048
 Alpha virt. eigenvalues --    4.07549   4.08289   4.11703   4.16896   4.19112
 Alpha virt. eigenvalues --    4.21084   4.22836   4.25051   4.28046   4.29417
 Alpha virt. eigenvalues --    4.34534   4.37132   4.41082   4.44321   4.46370
 Alpha virt. eigenvalues --    4.53463   4.60127   4.62401   4.70849   4.85821
 Alpha virt. eigenvalues --    5.03230   5.09347   5.10129   5.13686   5.17253
 Alpha virt. eigenvalues --    5.19370   5.21687   5.25082   5.33810   5.36552
 Alpha virt. eigenvalues --    5.41067   5.41867   5.42872   5.48592   5.49854
 Alpha virt. eigenvalues --    5.52423   5.56099   5.60279   5.63664   5.68778
 Alpha virt. eigenvalues --    5.80504   5.90940   6.14294   6.36467   6.50474
 Alpha virt. eigenvalues --    6.77138   6.82589   6.91500   6.95949   7.04585
 Alpha virt. eigenvalues --    7.15013   7.18368   7.26773   7.48323   7.59831
 Alpha virt. eigenvalues --    7.72404   7.76261  24.21021  24.22027  24.41257
 Alpha virt. eigenvalues --   24.63861  50.11254  50.19798
  Beta  occ. eigenvalues --  -19.69423 -19.62586 -10.69199 -10.60140 -10.56533
  Beta  occ. eigenvalues --  -10.54977  -1.22085  -1.12383  -0.90830  -0.79095
  Beta  occ. eigenvalues --   -0.72957  -0.64064  -0.59063  -0.56879  -0.53791
  Beta  occ. eigenvalues --   -0.52009  -0.49882  -0.46150  -0.44524  -0.43903
  Beta  occ. eigenvalues --   -0.41893  -0.39871  -0.36063
  Beta virt. eigenvalues --   -0.04557   0.00636   0.02275   0.03344   0.03866
  Beta virt. eigenvalues --    0.04192   0.05024   0.06130   0.07728   0.08151
  Beta virt. eigenvalues --    0.08368   0.08960   0.10299   0.11724   0.12665
  Beta virt. eigenvalues --    0.12926   0.15157   0.15641   0.18253   0.19503
  Beta virt. eigenvalues --    0.20348   0.21572   0.22188   0.23583   0.23953
  Beta virt. eigenvalues --    0.25389   0.25905   0.26656   0.28837   0.29370
  Beta virt. eigenvalues --    0.30627   0.32034   0.32942   0.34937   0.35890
  Beta virt. eigenvalues --    0.36823   0.40157   0.41811   0.43762   0.45619
  Beta virt. eigenvalues --    0.46907   0.48415   0.50227   0.51503   0.52438
  Beta virt. eigenvalues --    0.54352   0.55362   0.57016   0.58407   0.58909
  Beta virt. eigenvalues --    0.59569   0.60748   0.62731   0.63669   0.65303
  Beta virt. eigenvalues --    0.65985   0.66968   0.69201   0.72102   0.75252
  Beta virt. eigenvalues --    0.77305   0.80170   0.82040   0.85165   0.87528
  Beta virt. eigenvalues --    0.88697   0.90052   0.91437   0.94236   0.94888
  Beta virt. eigenvalues --    0.99104   0.99953   1.02599   1.05071   1.08483
  Beta virt. eigenvalues --    1.11166   1.12499   1.14041   1.15087   1.15933
  Beta virt. eigenvalues --    1.17580   1.19186   1.19890   1.20575   1.22331
  Beta virt. eigenvalues --    1.24272   1.26094   1.27392   1.28293   1.30494
  Beta virt. eigenvalues --    1.32852   1.33291   1.36180   1.38120   1.39253
  Beta virt. eigenvalues --    1.41452   1.43957   1.45418   1.46645   1.48257
  Beta virt. eigenvalues --    1.50520   1.53032   1.53873   1.58115   1.59812
  Beta virt. eigenvalues --    1.60746   1.64988   1.65773   1.67728   1.69535
  Beta virt. eigenvalues --    1.79475   1.81697   1.87152   2.02455   2.07376
  Beta virt. eigenvalues --    2.12498   2.27533   2.28834   2.41106   2.43251
  Beta virt. eigenvalues --    2.46469   2.49253   2.51786   2.56792   2.59516
  Beta virt. eigenvalues --    2.66204   2.68309   2.76257   2.77068   2.80628
  Beta virt. eigenvalues --    2.83247   2.86711   2.91335   2.95734   2.97104
  Beta virt. eigenvalues --    2.98902   3.00092   3.02255   3.05498   3.05781
  Beta virt. eigenvalues --    3.07318   3.09057   3.09965   3.15108   3.15284
  Beta virt. eigenvalues --    3.16680   3.20271   3.21662   3.24653   3.26754
  Beta virt. eigenvalues --    3.27531   3.31549   3.33440   3.33652   3.34340
  Beta virt. eigenvalues --    3.37149   3.40618   3.43171   3.44937   3.47770
  Beta virt. eigenvalues --    3.51905   3.53654   3.55436   3.57425   3.59446
  Beta virt. eigenvalues --    3.60682   3.67259   3.71195   3.71928   3.75292
  Beta virt. eigenvalues --    3.78539   3.81321   3.84274   3.85823   3.88548
  Beta virt. eigenvalues --    3.91611   3.94783   3.97886   3.98311   4.02515
  Beta virt. eigenvalues --    4.04357   4.08279   4.11691   4.13387   4.17871
  Beta virt. eigenvalues --    4.19295   4.23092   4.25610   4.25696   4.28328
  Beta virt. eigenvalues --    4.30050   4.34563   4.37691   4.41426   4.44495
  Beta virt. eigenvalues --    4.48481   4.53667   4.60200   4.62536   4.70917
  Beta virt. eigenvalues --    4.86022   5.06539   5.09536   5.11250   5.14790
  Beta virt. eigenvalues --    5.18301   5.19541   5.22421   5.26905   5.34637
  Beta virt. eigenvalues --    5.37484   5.41510   5.41980   5.47636   5.48815
  Beta virt. eigenvalues --    5.50100   5.52608   5.56535   5.60860   5.64317
  Beta virt. eigenvalues --    5.69318   5.81128   5.91742   6.14478   6.36946
  Beta virt. eigenvalues --    6.50929   6.77311   6.82898   6.91811   6.96073
  Beta virt. eigenvalues --    7.04843   7.15287   7.18626   7.27061   7.48496
  Beta virt. eigenvalues --    7.59920   7.72486   7.76265  24.21227  24.23336
  Beta virt. eigenvalues --   24.41261  24.63931  50.11134  50.19751
          Condensed to atoms (all electrons):
               1          2          3          4          5          6
     1  O    8.065271  -0.082921  -0.092827  -0.030954   0.218693   0.113764
     2  O   -0.082921   8.112074  -0.010554  -0.029024   0.452046  -0.056377
     3  C   -0.092827  -0.010554   5.953638   0.079458  -0.260193  -0.134693
     4  C   -0.030954  -0.029024   0.079458   5.294981  -0.128768  -0.005262
     5  C    0.218693   0.452046  -0.260193  -0.128768   5.610137  -0.036326
     6  C    0.113764  -0.056377  -0.134693  -0.005262  -0.036326   5.471101
     7  H   -0.007546   0.003848   0.439246  -0.057522  -0.041030   0.002841
     8  H    0.005965  -0.006795   0.466851  -0.015113  -0.081313  -0.001790
     9  H    0.000515   0.000671  -0.020305   0.428522  -0.025620   0.000071
    10  H   -0.001860  -0.000804  -0.040715   0.386046   0.034739   0.000090
    11  H    0.003957   0.002085  -0.046234   0.429444  -0.017753   0.000575
    12  H   -0.025318  -0.007054   0.000898  -0.000268  -0.002546   0.404941
    13  H   -0.046543   0.002953   0.007477  -0.000290   0.005159   0.402930
               7          8          9         10         11         12
     1  O   -0.007546   0.005965   0.000515  -0.001860   0.003957  -0.025318
     2  O    0.003848  -0.006795   0.000671  -0.000804   0.002085  -0.007054
     3  C    0.439246   0.466851  -0.020305  -0.040715  -0.046234   0.000898
     4  C   -0.057522  -0.015113   0.428522   0.386046   0.429444  -0.000268
     5  C   -0.041030  -0.081313  -0.025620   0.034739  -0.017753  -0.002546
     6  C    0.002841  -0.001790   0.000071   0.000090   0.000575   0.404941
     7  H    0.524857  -0.029877   0.005783  -0.013136   0.001440   0.000005
     8  H   -0.029877   0.503957  -0.014516   0.001145   0.004950   0.000012
     9  H    0.005783  -0.014516   0.536761  -0.026209  -0.029713   0.000001
    10  H   -0.013136   0.001145  -0.026209   0.562757  -0.025948   0.000000
    11  H    0.001440   0.004950  -0.029713  -0.025948   0.532698  -0.000038
    12  H    0.000005   0.000012   0.000001   0.000000  -0.000038   0.482984
    13  H   -0.000025   0.000013   0.000001  -0.000001   0.000044  -0.030137
              13
     1  O   -0.046543
     2  O    0.002953
     3  C    0.007477
     4  C   -0.000290
     5  C    0.005159
     6  C    0.402930
     7  H   -0.000025
     8  H    0.000013
     9  H    0.000001
    10  H   -0.000001
    11  H    0.000044
    12  H   -0.030137
    13  H    0.502269
          Atomic-Atomic Spin Densities.
               1          2          3          4          5          6
     1  O    0.111975  -0.003786  -0.000028  -0.000795   0.024365  -0.154564
     2  O   -0.003786   0.018572   0.001155  -0.000263  -0.004434   0.008312
     3  C   -0.000028   0.001155  -0.013777  -0.002070   0.009363  -0.007559
     4  C   -0.000795  -0.000263  -0.002070   0.007380  -0.002680  -0.000395
     5  C    0.024365  -0.004434   0.009363  -0.002680   0.018132  -0.005742
     6  C   -0.154564   0.008312  -0.007559  -0.000395  -0.005742   1.201627
     7  H   -0.000445   0.000146   0.004715  -0.000030  -0.004212   0.000147
     8  H   -0.000096  -0.000040  -0.001025   0.000161   0.000836  -0.000095
     9  H    0.000090  -0.000026   0.000088   0.000424  -0.000652  -0.000071
    10  H    0.000071  -0.000018  -0.000371   0.000335   0.000042   0.000001
    11  H    0.000184   0.000006  -0.001412   0.000509   0.000621   0.000198
    12  H    0.001466   0.004630   0.000880  -0.000191  -0.003279  -0.016359
    13  H    0.004823  -0.000003   0.002201  -0.000135  -0.001621  -0.020215
               7          8          9         10         11         12
     1  O   -0.000445  -0.000096   0.000090   0.000071   0.000184   0.001466
     2  O    0.000146  -0.000040  -0.000026  -0.000018   0.000006   0.004630
     3  C    0.004715  -0.001025   0.000088  -0.000371  -0.001412   0.000880
     4  C   -0.000030   0.000161   0.000424   0.000335   0.000509  -0.000191
     5  C   -0.004212   0.000836  -0.000652   0.000042   0.000621  -0.003279
     6  C    0.000147  -0.000095  -0.000071   0.000001   0.000198  -0.016359
     7  H    0.000014   0.000105   0.000024   0.000061   0.000053   0.000018
     8  H    0.000105  -0.000256   0.000004   0.000029   0.000014  -0.000004
     9  H    0.000024   0.000004   0.000204   0.000049   0.000029   0.000001
    10  H    0.000061   0.000029   0.000049  -0.000096  -0.000026   0.000001
    11  H    0.000053   0.000014   0.000029  -0.000026   0.000509  -0.000004
    12  H    0.000018  -0.000004   0.000001   0.000001  -0.000004  -0.013489
    13  H    0.000018  -0.000001   0.000001   0.000000  -0.000007   0.006416
              13
     1  O    0.004823
     2  O   -0.000003
     3  C    0.002201
     4  C   -0.000135
     5  C   -0.001621
     6  C   -0.020215
     7  H    0.000018
     8  H   -0.000001
     9  H    0.000001
    10  H    0.000000
    11  H   -0.000007
    12  H    0.006416
    13  H   -0.010674
 Mulliken charges and spin densities:
               1          2
     1  O   -0.120195  -0.016740
     2  O   -0.380147   0.024252
     3  C   -0.342047  -0.007840
     4  C   -0.351248   0.002251
     5  C    0.272776   0.030738
     6  C   -0.161864   1.005284
     7  H    0.171116   0.000614
     8  H    0.166511  -0.000368
     9  H    0.144039   0.000165
    10  H    0.123894   0.000077
    11  H    0.144494   0.000674
    12  H    0.176520  -0.019912
    13  H    0.156150  -0.019195
 Sum of Mulliken charges =  -0.00000   1.00000
 Mulliken charges and spin densities with hydrogens summed into heavy atoms:
               1          2
     1  O   -0.120195  -0.016740
     2  O   -0.380147   0.024252
     3  C   -0.004419  -0.007594
     4  C    0.061179   0.003167
     5  C    0.272776   0.030738
     6  C    0.170806   0.966177
 APT charges:
               1
     1  O   -0.097507
     2  O   -0.304542
     3  C   -0.898705
     4  C   -1.166748
     5  C    0.342833
     6  C   -0.914228
     7  H    0.398021
     8  H    0.480075
     9  H    0.440966
    10  H    0.512691
    11  H    0.221842
    12  H    0.371326
    13  H    0.613976
 Sum of APT charges =  -0.00000
 APT charges with hydrogens summed into heavy atoms:
               1
     1  O   -0.097507
     2  O   -0.304542
     3  C   -0.020609
     4  C    0.008751
     5  C    0.342833
     6  C    0.071073
 Electronic spatial extent (au):  <R**2>=            644.6079
 Charge=             -0.0000 electrons
 Dipole moment (field-independent basis, Debye):
    X=             -1.1405    Y=             -1.6594    Z=              1.1006  Tot=              2.2947
 Quadrupole moment (field-independent basis, Debye-Ang):
   XX=            -30.7045   YY=            -41.2859   ZZ=            -37.0606
   XY=             -2.0217   XZ=              0.5662   YZ=              0.8281
 Traceless Quadrupole moment (field-independent basis, Debye-Ang):
   XX=              5.6458   YY=             -4.9355   ZZ=             -0.7103
   XY=             -2.0217   XZ=              0.5662   YZ=              0.8281
 Octapole moment (field-independent basis, Debye-Ang**2):
  XXX=             10.9534  YYY=             -5.2903  ZZZ=              2.7633  XYY=             -0.8934
  XXY=             -2.3073  XXZ=              3.9091  XZZ=             -2.4202  YZZ=              0.5944
  YYZ=              2.2637  XYZ=              0.0287
 Hexadecapole moment (field-independent basis, Debye-Ang**3):
 XXXX=           -555.4608 YYYY=           -199.7678 ZZZZ=            -83.3263 XXXY=             -8.7805
 XXXZ=              5.6472 YYYX=             -7.6368 YYYZ=             -0.1259 ZZZX=              1.9890
 ZZZY=             -3.4437 XXYY=           -119.5314 XXZZ=           -117.3345 YYZZ=            -45.4755
 XXYZ=             -6.4147 YYXZ=              1.4251 ZZXY=              1.4168
 N-N= 2.334715287635D+02 E-N=-1.184722591540D+03  KE= 3.053878495844D+02
  Exact polarizability:   0.000   0.000   0.000   0.000   0.000   0.000
 Approx polarizability:  67.452   0.156  71.309  -2.787  -3.775  55.548
                          Isotropic Fermi Contact Couplings
        Atom                 a.u.       MegaHertz       Gauss      10(-4) cm-1
     1  O(17)              0.01679     -10.18013      -3.63252      -3.39573
     2  O(17)              0.00207      -1.25461      -0.44768      -0.41849
     3  C(13)             -0.00197      -2.21461      -0.79023      -0.73871
     4  C(13)              0.00295       3.31355       1.18236       1.10528
     5  C(13)              0.00264       2.96262       1.05714       0.98822
     6  C(13)              0.33703     378.88205     135.19454     126.38145
     7  H(1)               0.00076       3.37838       1.20549       1.12691
     8  H(1)              -0.00022      -0.97311      -0.34723      -0.32460
     9  H(1)               0.00010       0.43655       0.15577       0.14562
    10  H(1)               0.00004       0.18770       0.06698       0.06261
    11  H(1)               0.00004       0.18160       0.06480       0.06058
    12  H(1)              -0.00529     -23.66177      -8.44311      -7.89272
    13  H(1)              -0.00509     -22.75990      -8.12130      -7.59189
 --------------------------------------------------------
       Center         ----  Spin Dipole Couplings  ----
                      3XX-RR        3YY-RR        3ZZ-RR
 --------------------------------------------------------
     1   Atom       -0.250148     -0.165439      0.415587
     2   Atom       -0.024778     -0.030317      0.055095
     3   Atom        0.003637     -0.002805     -0.000831
     4   Atom        0.005587     -0.003294     -0.002293
     5   Atom       -0.002302     -0.012449      0.014752
     6   Atom       -0.515571     -0.473547      0.989117
     7   Atom        0.003378     -0.002729     -0.000649
     8   Atom        0.002266     -0.000876     -0.001390
     9   Atom        0.002350     -0.001170     -0.001180
    10   Atom        0.002270     -0.001137     -0.001132
    11   Atom        0.004666     -0.002457     -0.002209
    12   Atom       -0.048897      0.058534     -0.009636
    13   Atom       -0.019752      0.018600      0.001152
 --------------------------------------------------------
                        XY            XZ            YZ
 --------------------------------------------------------
     1   Atom       -0.029169      0.019974      0.093873
     2   Atom        0.001714      0.046108      0.020053
     3   Atom       -0.002315     -0.000228      0.000308
     4   Atom        0.000786      0.001990      0.000501
     5   Atom       -0.007331      0.009513      0.009027
     6   Atom        0.016397      0.120845      0.244946
     7   Atom       -0.000354     -0.003399     -0.000014
     8   Atom       -0.001973     -0.001161      0.000542
     9   Atom       -0.000595      0.000700     -0.000220
    10   Atom        0.000591     -0.000318     -0.000123
    11   Atom        0.001439      0.001439      0.000727
    12   Atom        0.037841      0.007409      0.011989
    13   Atom       -0.056942      0.027938     -0.020229
 --------------------------------------------------------


 ---------------------------------------------------------------------------------
              Anisotropic Spin Dipole Couplings in Principal Axis System
 ---------------------------------------------------------------------------------

       Atom             a.u.   MegaHertz   Gauss  10(-4) cm-1        Axes

              Baa    -0.2628    19.017     6.786     6.344  0.9326  0.3529 -0.0763
     1 O(17)  Bbb    -0.1679    12.149     4.335     4.052 -0.3603  0.9228 -0.1361
              Bcc     0.4307   -31.166   -11.121   -10.396  0.0224  0.1544  0.9877
 
              Baa    -0.0488     3.530     1.260     1.177  0.8077  0.3977 -0.4353
     2 O(17)  Bbb    -0.0307     2.218     0.792     0.740 -0.4323  0.9015  0.0216
              Bcc     0.0794    -5.748    -2.051    -1.917  0.4010  0.1707  0.9000
 
              Baa    -0.0036    -0.479    -0.171    -0.160  0.3025  0.9497 -0.0815
     3 C(13)  Bbb    -0.0008    -0.112    -0.040    -0.037  0.0816  0.0594  0.9949
              Bcc     0.0044     0.591     0.211     0.197  0.9497 -0.3076 -0.0595
 
              Baa    -0.0035    -0.470    -0.168    -0.157  0.0060  0.9204 -0.3910
     4 C(13)  Bbb    -0.0026    -0.354    -0.126    -0.118 -0.2516  0.3798  0.8902
              Bcc     0.0061     0.824     0.294     0.275  0.9678  0.0930  0.2338
 
              Baa    -0.0207    -2.782    -0.993    -0.928  0.4928  0.8025 -0.3363
     5 C(13)  Bbb     0.0008     0.102     0.036     0.034  0.8031 -0.5683 -0.1794
              Bcc     0.0200     2.680     0.956     0.894  0.3350  0.1817  0.9245
 
              Baa    -0.5260   -70.581   -25.185   -23.543  0.9649  0.2361 -0.1151
     6 C(13)  Bbb    -0.5126   -68.790   -24.546   -22.946 -0.2508  0.9584 -0.1361
              Bcc     1.0386   139.372    49.731    46.489  0.0782  0.1602  0.9840
 
              Baa    -0.0029    -1.529    -0.546    -0.510  0.3020  0.8303  0.4684
     7 H(1)   Bbb    -0.0025    -1.313    -0.468    -0.438  0.3927 -0.5561  0.7325
              Bcc     0.0053     2.842     1.014     0.948  0.8687 -0.0373 -0.4940
 
              Baa    -0.0018    -0.976    -0.348    -0.326  0.4612  0.8766  0.1372
     8 H(1)   Bbb    -0.0017    -0.918    -0.328    -0.306  0.1626 -0.2355  0.9582
              Bcc     0.0035     1.894     0.676     0.632  0.8723 -0.4197 -0.2511
 
              Baa    -0.0014    -0.746    -0.266    -0.249 -0.0453  0.6286  0.7764
     9 H(1)   Bbb    -0.0012    -0.635    -0.226    -0.212  0.2467  0.7602 -0.6010
              Bcc     0.0026     1.381     0.493     0.461  0.9680 -0.1643  0.1895
 
              Baa    -0.0013    -0.682    -0.243    -0.227 -0.0960  0.8530  0.5129
    10 H(1)   Bbb    -0.0011    -0.599    -0.214    -0.200  0.1661 -0.4944  0.8532
              Bcc     0.0024     1.281     0.457     0.427  0.9814  0.1671 -0.0942
 
              Baa    -0.0031    -1.641    -0.586    -0.548 -0.0347  0.7937 -0.6074
    11 H(1)   Bbb    -0.0022    -1.170    -0.417    -0.390 -0.2819  0.5753  0.7678
              Bcc     0.0053     2.811     1.003     0.938  0.9588  0.1978  0.2038
 
              Baa    -0.0611   -32.613   -11.637   -10.879  0.9532 -0.2946 -0.0686
    12 H(1)   Bbb    -0.0117    -6.226    -2.221    -2.077  0.0162 -0.1768  0.9841
              Bcc     0.0728    38.839    13.859    12.955  0.3020  0.9391  0.1637
 
              Baa    -0.0628   -33.511   -11.958   -11.178  0.8259  0.5297 -0.1932
    13 H(1)   Bbb    -0.0115    -6.146    -2.193    -2.050 -0.0792  0.4483  0.8904
              Bcc     0.0743    39.657    14.151    13.228 -0.5582  0.7201 -0.4122
 

 ---------------------------------------------------------------------------------

 No NMR shielding tensors so no spin-rotation constants.
 Leave Link  601 at Tue Apr  9 02:10:12 2019, MaxMem=   671088640 cpu:               9.0 elap:               0.5
 (Enter /shared/centos7/gaussian/g16/l701.exe)
 SCFChk:  SCF convergence  8.38D-09 required  1.00D-08
 ... and contract with generalized density number  0.
 Compute integral second derivatives.
 Entering OneElI...
 Calculate overlap and kinetic energy integrals
    NBasis = 297  MinDer = 2  MaxDer = 2
 Requested accuracy = 0.1000D-12
 PrmmSu-InSpLW:  IPartL=    0 NPrtUS=   20 NPrtUL=    1 DoSpLW=F IThBeg=    0 IThEnd=   19 NThAct=   20.
 PrsmSu:  NPrtUS=  20 ThrOK=T IAlg=1 NPAlg=1 LenDen=           0 ISkipM=0 DoSpLW=F IThBeg=    0 IThEnd=   19.
 Prism:   IPart=     0 DynPar=F LinDyn=F Incr=           1.
 PRISM was handed    33455254 working-precision words and  3470 shell-pairs
 PRISM was handed    33455254 working-precision words and  3470 shell-pairs
 PRISM was handed    33455254 working-precision words and  3470 shell-pairs
 PRISM was handed    33455254 working-precision words and  3470 shell-pairs
 PRISM was handed    33455254 working-precision words and  3470 shell-pairs
 PRISM was handed    33455254 working-precision words and  3470 shell-pairs
 PRISM was handed    33455254 working-precision words and  3470 shell-pairs
 PRISM was handed    33455254 working-precision words and  3470 shell-pairs
 PRISM was handed    33455254 working-precision words and  3470 shell-pairs
 PRISM was handed    33455254 working-precision words and  3470 shell-pairs
 PRISM was handed    33455254 working-precision words and  3470 shell-pairs
 PRISM was handed    33455254 working-precision words and  3470 shell-pairs
 PRISM was handed    33455254 working-precision words and  3470 shell-pairs
 PRISM was handed    33455254 working-precision words and  3470 shell-pairs
 PRISM was handed    33455254 working-precision words and  3470 shell-pairs
 PRISM was handed    33455254 working-precision words and  3470 shell-pairs
 PRISM was handed    33455254 working-precision words and  3470 shell-pairs
 PRISM was handed    33455254 working-precision words and  3470 shell-pairs
 PRISM was handed    33455254 working-precision words and  3470 shell-pairs
 PRISM was handed    33455254 working-precision words and  3470 shell-pairs
 IPart=  3 NShTot=         190 NBatch=          46 AvBLen=         4.1
 IPart=  2 NShTot=         195 NBatch=          49 AvBLen=         4.0
 IPart=  1 NShTot=         200 NBatch=          54 AvBLen=         3.7
 IPart=  4 NShTot=         186 NBatch=          43 AvBLen=         4.3
 IPart=  6 NShTot=         181 NBatch=          39 AvBLen=         4.6
 IPart=  5 NShTot=         185 NBatch=          43 AvBLen=         4.3
 IPart=  7 NShTot=         180 NBatch=          38 AvBLen=         4.7
 IPart= 12 NShTot=         164 NBatch=          31 AvBLen=         5.3
 IPart= 11 NShTot=         166 NBatch=          31 AvBLen=         5.4
 IPart= 16 NShTot=         158 NBatch=          30 AvBLen=         5.3
 IPart= 17 NShTot=         156 NBatch=          30 AvBLen=         5.2
 IPart= 18 NShTot=         153 NBatch=          30 AvBLen=         5.1
 IPart= 15 NShTot=         161 NBatch=          30 AvBLen=         5.4
 IPart= 14 NShTot=         162 NBatch=          31 AvBLen=         5.2
 IPart=  0 NShTot=         203 NBatch=          55 AvBLen=         3.7
 IPart= 13 NShTot=         163 NBatch=          31 AvBLen=         5.3
 IPart= 10 NShTot=         169 NBatch=          33 AvBLen=         5.1
 IPart=  9 NShTot=         171 NBatch=          34 AvBLen=         5.0
 IPart=  8 NShTot=         176 NBatch=          37 AvBLen=         4.8
 IPart= 19 NShTot=         151 NBatch=          30 AvBLen=         5.0
 PrSmSu:  NxtVal=             21.
 Entering OneElI...
 Calculate potential energy integrals
    NBasis = 297  MinDer = 2  MaxDer = 2
 Requested accuracy = 0.1000D-12
 PrmmSu-InSpLW:  IPartL=    0 NPrtUS=   20 NPrtUL=    1 DoSpLW=F IThBeg=    0 IThEnd=   19 NThAct=   20.
 PrsmSu:  NPrtUS=  20 ThrOK=T IAlg=1 NPAlg=1 LenDen=           0 ISkipM=0 DoSpLW=F IThBeg=    0 IThEnd=   19.
 Prism:   IPart=     0 DynPar=F LinDyn=F Incr=          21.
 PRISM was handed    33469673 working-precision words and  3234 shell-pairs
 PRISM was handed    33469673 working-precision words and  3234 shell-pairs
 PRISM was handed    33469673 working-precision words and  3234 shell-pairs
 PRISM was handed    33469673 working-precision words and  3234 shell-pairs
 PRISM was handed    33469673 working-precision words and  3234 shell-pairs
 PRISM was handed    33469673 working-precision words and  3234 shell-pairs
 PRISM was handed    33469673 working-precision words and  3234 shell-pairs
 PRISM was handed    33469673 working-precision words and  3234 shell-pairs
 PRISM was handed    33469673 working-precision words and  3234 shell-pairs
 PRISM was handed    33469673 working-precision words and  3234 shell-pairs
 PRISM was handed    33469673 working-precision words and  3234 shell-pairs
 PRISM was handed    33469673 working-precision words and  3234 shell-pairs
 PRISM was handed    33469673 working-precision words and  3234 shell-pairs
 PRISM was handed    33469673 working-precision words and  3234 shell-pairs
 PRISM was handed    33469673 working-precision words and  3234 shell-pairs
 PRISM was handed    33469673 working-precision words and  3234 shell-pairs
 PRISM was handed    33469673 working-precision words and  3234 shell-pairs
 PRISM was handed    33469673 working-precision words and  3234 shell-pairs
 PRISM was handed    33469673 working-precision words and  3234 shell-pairs
 PRISM was handed    33469673 working-precision words and  3234 shell-pairs
 IPart= 17 NShTot=        1872 NBatch=         144 AvBLen=        13.0
 IPart= 15 NShTot=        1911 NBatch=         147 AvBLen=        13.0
 IPart= 18 NShTot=        1872 NBatch=         144 AvBLen=        13.0
 IPart= 14 NShTot=        1937 NBatch=         149 AvBLen=        13.0
 IPart= 12 NShTot=        1963 NBatch=         151 AvBLen=        13.0
 IPart= 16 NShTot=        1872 NBatch=         144 AvBLen=        13.0
 IPart= 11 NShTot=        2028 NBatch=         156 AvBLen=        13.0
 IPart=  7 NShTot=        2145 NBatch=         165 AvBLen=        13.0
 IPart=  3 NShTot=        2327 NBatch=         179 AvBLen=        13.0
 IPart=  5 NShTot=        2223 NBatch=         171 AvBLen=        13.0
 IPart=  2 NShTot=        2353 NBatch=         181 AvBLen=        13.0
 IPart=  4 NShTot=        2288 NBatch=         176 AvBLen=        13.0
 IPart=  8 NShTot=        2145 NBatch=         165 AvBLen=        13.0
 IPart=  1 NShTot=        2444 NBatch=         188 AvBLen=        13.0
 IPart=  0 NShTot=        2535 NBatch=         195 AvBLen=        13.0
 IPart= 13 NShTot=        1937 NBatch=         149 AvBLen=        13.0
 IPart= 10 NShTot=        2067 NBatch=         159 AvBLen=        13.0
 IPart=  9 NShTot=        2119 NBatch=         163 AvBLen=        13.0
 IPart=  6 NShTot=        2171 NBatch=         167 AvBLen=        13.0
 IPart= 19 NShTot=        1833 NBatch=         141 AvBLen=        13.0
 PrSmSu:  NxtVal=            421.
 Polarizability after L701:
                1             2             3 
      1  0.000000D+00
      2  0.000000D+00  0.000000D+00
      3  0.000000D+00  0.000000D+00  0.000000D+00
 Dipole Derivatives after L701:
                 1             2             3             4             5 
      1   0.106675D+00  0.656858D-02 -0.991337D-01 -0.302972D+00  0.743206D-01
      2   0.106219D-02 -0.155651D+00 -0.620588D-01  0.195740D+00 -0.600941D-01
      3  -0.585607D-01 -0.640916D-01 -0.243545D+00 -0.737550D-01 -0.547725D-01
                 6             7             8             9            10 
      1  -0.641224D-01 -0.868547D+00  0.587999D+00  0.116176D+01 -0.165226D+01
      2  -0.110587D+00  0.285453D+00 -0.694052D+00  0.114589D+00 -0.248226D-01
      3  -0.550559D+00  0.214199D+00  0.366949D-01 -0.113352D+01  0.898680D-01
                11            12            13            14            15 
      1  -0.511150D+00 -0.100779D+01  0.566776D+00 -0.222566D+00  0.823092D-01
      2  -0.965298D+00 -0.164572D+00 -0.241263D+00 -0.254886D+00  0.229870D+00
      3   0.182466D-01 -0.882688D+00  0.527968D-01  0.195294D+00  0.716609D+00
                16            17            18            19            20 
      1  -0.182006D+01 -0.643528D-01 -0.563299D+00  0.235547D+00  0.297737D+00
      2   0.400860D+00 -0.820297D+00  0.242136D+00  0.236071D-01  0.255868D+00
      3   0.798179D-02  0.133033D+00 -0.102323D+00 -0.489948D-01 -0.338636D+00
                21            22            23            24            25 
      1  -0.477624D+00  0.582399D+00 -0.701579D+00 -0.130591D+00  0.690259D+00
      2  -0.140452D+00 -0.278094D+00  0.629641D+00  0.842183D-01 -0.403580D-01
      3   0.702648D+00 -0.164462D+00  0.290888D+00  0.228184D+00  0.249343D+00
                26            27            28            29            30 
      1  -0.773959D+00  0.689039D+00  0.970486D+00  0.734335D+00 -0.588235D+00
      2   0.218892D+00 -0.356158D-01  0.350043D+00  0.393127D+00 -0.248313D+00
      3  -0.313700D+00  0.413748D+00 -0.340501D-01 -0.371451D-01  0.174459D+00
                31            32            33            34            35 
      1  -0.175552D+00  0.364398D+00  0.406869D+00  0.622882D+00  0.118792D+01
      2  -0.288062D+00  0.441788D+00  0.335387D+00  0.407882D-01  0.364142D+00
      3  -0.247932D+00  0.275288D+00  0.399291D+00 -0.240131D-01 -0.607236D-01
                36            37            38            39 
      1   0.123788D+00  0.104437D+01 -0.979674D+00  0.467032D+00
      2   0.103167D-01 -0.424955D+00  0.646819D+00 -0.254918D+00
      3   0.126953D+00  0.375793D-01 -0.803768D-01  0.150738D+00
 Hessian after L701:
                1             2             3             4             5 
      1  0.341342D+01
      2  0.475552D+01  0.780166D+01
      3  0.186949D+01  0.664021D+00  0.153744D+02
      4 -0.112709D+00 -0.426061D+00  0.124849D+00  0.109926D+02
      5 -0.500881D+00  0.604940D+00  0.307476D-01 -0.535624D+01  0.859928D+00
      6  0.137870D+00  0.250077D-01 -0.177641D-01  0.241232D+01  0.466212D+01
      7  0.561077D+00 -0.271420D+00 -0.494567D-01  0.806252D+00  0.547889D+00
      8 -0.190702D+00 -0.122178D-01  0.257144D-01  0.485844D+00 -0.117782D+00
      9  0.593422D-01 -0.162971D-01 -0.807337D-01 -0.325408D+00 -0.577999D-01
     10  0.345091D+00  0.544687D-02  0.996228D-01  0.190067D+00  0.237823D+00
     11 -0.867173D-01 -0.193454D+00 -0.134630D-01  0.232662D+00 -0.496893D-02
     12  0.113986D-01  0.238356D-01 -0.178641D+00  0.287986D-01  0.187559D-01
     13 -0.492266D+01 -0.473733D+01  0.395192D-01 -0.120778D+02  0.548615D+01
     14 -0.470724D+01 -0.181361D+01 -0.478183D+00  0.552107D+01 -0.172999D+01
     15  0.810029D-02 -0.479307D+00 -0.914358D+01 -0.219996D+01 -0.456405D+01
     16  0.529410D+00  0.746476D+00 -0.221121D+01 -0.669048D-02 -0.410359D+00
     17  0.702740D+00 -0.666836D+01 -0.238209D+00 -0.507698D+00  0.388165D+00
     18 -0.224888D+01 -0.261239D+00 -0.599204D+01  0.849204D-02 -0.960779D-02
     19  0.147275D-01  0.125070D-01 -0.465976D-01 -0.167731D-01  0.500413D-01
     20  0.384859D-01 -0.395575D-01 -0.197379D-01  0.551170D-01  0.355454D-01
     21 -0.934919D-01  0.592098D-02  0.387608D-01 -0.770744D-01 -0.103681D+00
     22  0.773052D-01 -0.109928D+00 -0.272218D-01  0.780671D-01  0.325303D-01
     23 -0.122293D+00  0.528286D-01  0.255906D-01 -0.618448D-01 -0.538357D-01
     24 -0.372042D-01  0.301526D-01 -0.375886D-01 -0.389972D-01 -0.119301D-01
     25  0.496478D-01 -0.218996D-01  0.245469D-01  0.632476D-01  0.461857D-01
     26 -0.352313D-01 -0.638356D-02 -0.122289D-01 -0.237103D-02 -0.272148D-01
     27  0.374258D-01 -0.111303D-01 -0.600528D-02  0.389833D-01  0.222917D-01
     28  0.436155D-01  0.572568D-02  0.175584D-02  0.225541D-01  0.281556D-01
     29  0.214175D-01 -0.134137D-01  0.102459D-03  0.260325D-01  0.112921D-01
     30 -0.149548D-01 -0.117611D-02 -0.132107D-01 -0.143843D-01 -0.126708D-01
     31  0.446824D-01  0.225136D-01  0.544472D-01 -0.125445D-01  0.240843D-01
     32  0.691267D-01 -0.531542D-01  0.346553D-01  0.640322D-01  0.601844D-01
     33  0.115112D+00  0.206216D-01 -0.817818D-02  0.350257D-01  0.491458D-01
     34  0.158686D-01  0.433677D-01  0.621519D-01  0.487702D-01 -0.919786D-01
[...]
 ! R5    R(3,5)                  1.5017         -DE/DX =    0.0                 !
 ! R6    R(3,7)                  1.0902         -DE/DX =    0.0                 !
 ! R7    R(3,8)                  1.0868         -DE/DX =    0.0                 !
 ! R8    R(4,9)                  1.0891         -DE/DX =    0.0                 !
 ! R9    R(4,10)                 1.0881         -DE/DX =    0.0                 !
 ! R10   R(4,11)                 1.0882         -DE/DX =    0.0                 !
 ! R11   R(6,12)                 1.0754         -DE/DX =    0.0                 !
 ! R12   R(6,13)                 1.074          -DE/DX =    0.0                 !
 ! A1    A(5,1,6)              118.2227         -DE/DX =    0.0                 !
 ! A2    A(4,3,5)              111.0721         -DE/DX =    0.0                 !
 ! A3    A(4,3,7)              109.949          -DE/DX =    0.0                 !
 ! A4    A(4,3,8)              111.1054         -DE/DX =    0.0                 !
 ! A5    A(5,3,7)              108.5305         -DE/DX =    0.0                 !
 ! A6    A(5,3,8)              107.1946         -DE/DX =    0.0                 !
 ! A7    A(7,3,8)              108.8987         -DE/DX =    0.0                 !
 ! A8    A(3,4,9)              110.7218         -DE/DX =    0.0                 !
 ! A9    A(3,4,10)             110.183          -DE/DX =    0.0                 !
 ! A10   A(3,4,11)             110.7674         -DE/DX =    0.0                 !
 ! A11   A(9,4,10)             108.2026         -DE/DX =    0.0                 !
 ! A12   A(9,4,11)             108.4672         -DE/DX =    0.0                 !
 ! A13   A(10,4,11)            108.4191         -DE/DX =    0.0                 !
 ! A14   A(1,5,2)              122.7223         -DE/DX =    0.0                 !
 ! A15   A(1,5,3)              110.7037         -DE/DX =    0.0                 !
 ! A16   A(2,5,3)              126.5609         -DE/DX =    0.0                 !
 ! A17   A(1,6,12)             118.4657         -DE/DX =    0.0                 !
 ! A18   A(1,6,13)             113.894          -DE/DX =    0.0                 !
 ! A19   A(12,6,13)            125.6652         -DE/DX =    0.0                 !
 ! D1    D(6,1,5,2)             -1.566          -DE/DX =    0.0                 !
 ! D2    D(6,1,5,3)            177.1931         -DE/DX =    0.0                 !
 ! D3    D(5,1,6,12)             8.4443         -DE/DX =    0.0                 !
 ! D4    D(5,1,6,13)           173.371          -DE/DX =    0.0                 !
 ! D5    D(5,3,4,9)            -59.459          -DE/DX =    0.0                 !
 ! D6    D(5,3,4,10)          -179.1218         -DE/DX =    0.0                 !
 ! D7    D(5,3,4,11)            60.9162         -DE/DX =    0.0                 !
 ! D8    D(7,3,4,9)           -179.6033         -DE/DX =    0.0                 !
 ! D9    D(7,3,4,10)            60.7339         -DE/DX =    0.0                 !
 ! D10   D(7,3,4,11)           -59.228          -DE/DX =    0.0                 !
 ! D11   D(8,3,4,9)             59.7701         -DE/DX =    0.0                 !
 ! D12   D(8,3,4,10)           -59.8927         -DE/DX =    0.0                 !
 ! D13   D(8,3,4,11)          -179.8546         -DE/DX =    0.0                 !
 ! D14   D(4,3,5,1)            -69.8884         -DE/DX =    0.0                 !
 ! D15   D(4,3,5,2)            108.8118         -DE/DX =    0.0                 !
 ! D16   D(7,3,5,1)             51.0942         -DE/DX =    0.0                 !
 ! D17   D(7,3,5,2)           -130.2056         -DE/DX =    0.0                 !
 ! D18   D(8,3,5,1)            168.566          -DE/DX =    0.0                 !
 ! D19   D(8,3,5,2)            -12.7338         -DE/DX =    0.0                 !
 ! D20   D(1,6,12,13)          162.9828         -DE/DX =    0.0                 !
 --------------------------------------------------------------------------------
 GradGradGradGradGradGradGradGradGradGradGradGradGradGradGradGradGradGrad

 Leave Link  103 at Tue Apr  9 02:40:02 2019, MaxMem=   671088640 cpu:               0.4 elap:               0.0
 (Enter /shared/centos7/gaussian/g16/l9999.exe)

 ----------------------------------------------------------------------

 Electric dipole moment (input orientation):
 (Debye = 10**-18 statcoulomb cm , SI units = C m)
                  (au)            (Debye)         (10**-30 SI)
   Tot        0.826086D+00      0.209970D+01      0.700385D+01
   x         -0.172599D-01     -0.438704D-01     -0.146336D+00
   y          0.416338D+00      0.105823D+01      0.352986D+01
   z          0.713290D+00      0.181300D+01      0.604753D+01

 Dipole polarizability, Alpha (input orientation).
 (esu units = cm**3 , SI units = C**2 m**2 J**-1)
 Alpha(0;0):
               (au)            (10**-24 esu)      (10**-40 SI)
   iso        0.557883D+02      0.826698D+01      0.919825D+01
   aniso      0.189163D+02      0.280311D+01      0.311888D+01
   xx         0.596104D+02      0.883334D+01      0.982842D+01
   yx         0.707566D+01      0.104850D+01      0.116662D+01
   yy         0.495948D+02      0.734920D+01      0.817708D+01
   zx        -0.624161D+01     -0.924912D+00     -0.102910D+01
   zy        -0.978334D+00     -0.144974D+00     -0.161306D+00
   zz         0.581598D+02      0.861840D+01      0.958926D+01

 ----------------------------------------------------------------------

 Dipole orientation:
     8          2.94016347         -0.77341335          1.06476560
     8          0.71532223         -2.02072112         -2.32957201
     6         -0.85926151         -2.96709652          1.84399392
     6          0.29909675         -5.25528124          3.18360909
     6          0.92906109         -1.90023905         -0.08394055
     6          4.79944975          0.19660803         -0.41838699
     1         -1.29558478         -1.49503670          3.21755228
     1         -2.58234895         -3.48426180          0.85318536
     1          0.75682728         -6.73677081          1.83022892
     1         -1.02927544         -6.02360738          4.55217098
     1          2.02039191         -4.72499596          4.17586938
     1          4.49572517          0.27354024         -2.42635062
     1          6.20952503          1.23682628          0.60587747

 Electric dipole moment (dipole orientation):
 (Debye = 10**-18 statcoulomb cm , SI units = C m)
                  (au)            (Debye)         (10**-30 SI)
   Tot        0.826086D+00      0.209970D+01      0.700385D+01
   x          0.000000D+00      0.000000D+00      0.000000D+00
   y          0.000000D+00      0.000000D+00      0.000000D+00
   z          0.826086D+00      0.209970D+01      0.700385D+01

 Dipole polarizability, Alpha (dipole orientation).
 (esu units = cm**3 , SI units = C**2 m**2 J**-1)
 Alpha(0;0):
               (au)            (10**-24 esu)      (10**-40 SI)
   iso        0.557883D+02      0.826698D+01      0.919825D+01
   aniso      0.189163D+02      0.280311D+01      0.311888D+01
   xx         0.594284D+02      0.880637D+01      0.979841D+01
   yx         0.920573D+01      0.136415D+01      0.151782D+01
   yy         0.527270D+02      0.781334D+01      0.869351D+01
   zx        -0.189077D+01     -0.280183D+00     -0.311746D+00
   zy        -0.441325D+01     -0.653976D+00     -0.727646D+00
   zz         0.552096D+02      0.818122D+01      0.910283D+01

 ----------------------------------------------------------------------

 Test job not archived.
 1\1\GINC-C0212\Freq\UM062X\6-311+G(2df,2p)\C4H7O2(2)\UNDERKOFFLER.C\09
 -Apr-2019\0\\#P Geom=AllCheck Guess=TCheck SCRF=Check Test GenChk UM06
 2X/6-311+G(2df,2p) Freq\\Gaussian input prepared by ASE\\0,2\O,1.54141
 77673,-0.0607211852,0.7252913948\O,0.3981577115,-1.5427187794,-0.51759
 88516\C,-0.4838556184,-0.8668770589,1.6243837681\C,0.1073238355,-1.551
 9443758,2.8595481114\C,0.4867685588,-0.8881053499,0.4787103208\C,2.544
 378242,-0.0073727831,-0.1905406855\H,-0.7254785945,0.1709443561,1.8545
 71265\H,-1.3860522925,-1.372645937,1.2905379627\H,0.3600210954,-2.5886
 300938,2.6413320685\H,-0.6128847199,-1.5420824418,3.6750992007\H,1.008
 5954812,-1.0397972351,3.190538333\H,2.4061227276,-0.5086420388,-1.1318
 993697\H,3.28216901,0.7454420226,0.0156331797\\Version=EM64L-G16RevA.0
 3\State=2-A\HF=-307.0074441\S2=0.754862\S2-1=0.\S2A=0.750018\RMSD=2.94
 6e-09\RMSF=3.724e-07\ZeroPoint=0.1047772\Thermal=0.1122418\Dipole=-0.0
 172599,0.4163381,0.7132902\DipoleDeriv=-1.3362164,-0.6174026,0.3860267
 ,-0.6316279,-0.5822926,-0.0697888,0.2438655,-0.1170886,-0.5982224,-0.5
 730097,-0.1121669,0.1425773,-0.3285231,-0.663502,-0.2530522,-0.2817558
 ,-0.4317584,-0.9057194,0.0109317,0.0043539,0.0703289,-0.0021954,0.0755
 287,0.0176929,0.1399578,0.0125908,-0.1817345,-0.0126941,-0.0153767,0.0
 815908,0.0174809,0.0786487,-0.0342793,-0.0132178,-0.0119314,0.0899767,
 1.3990575,0.6435694,-0.4049319,0.8961345,0.9753949,0.2792391,0.1763235
 ,0.5413039,1.1610168,0.3697596,0.249418,-0.3134229,0.2358274,-0.052627
 2,0.1353584,-0.4051615,0.0729934,0.2848627,0.0441774,0.0124541,0.02580
 48,0.0384541,-0.0671183,0.0063933,0.0194122,0.0010009,0.0399955,-0.035
 9348,-0.0326877,-0.0186207,-0.0578682,0.0432077,-0.0073303,-0.0405914,
 -0.0056379,0.0094134,0.0596798,0.0438606,-0.0186312,0.0421361,-0.08635
 4,0.0056593,-0.000853,-0.0458683,0.027647,-0.0079545,0.0057411,0.08784
 15,0.004347,0.0660665,0.0253489,0.0899866,0.0283715,-0.0839471,-0.0400
 606,-0.0414639,-0.0731407,-0.0623086,0.0214538,-0.0198084,-0.0413302,0
 .0061048,0.0448196,0.0605764,-0.0796478,-0.015168,-0.0482534,0.1213355
 ,-0.0494678,0.075699,-0.0052384,0.0511876,0.0616878,-0.0606515,0.04974
 53,-0.1036034,0.0702581,-0.035965,0.037665,-0.0448421,0.0607041\Polar=
 59.6103572,7.0756572,49.594828,-6.2416131,-0.9783342,58.1598154\Quadru
 pole=1.8460591,-0.6923893,-1.1536698,0.5895192,-2.5216975,-2.0866939\P
 G=C01 [X(C4H7O2)]\NImag=0\\0.44204934,0.17439082,0.20190602,-0.1381852
 0,0.08485584,0.32596653,-0.01213071,-0.04853104,-0.03916014,0.09995654
 ,-0.05204399,-0.03788494,-0.05191270,0.06771628,0.30696598,-0.04512831
 ,-0.05601522,-0.01678105,0.03733512,0.38992652,0.64160457,-0.03346386,
 -0.01144214,0.02833966,0.01358507,-0.00490383,0.00388120,0.56668803,-0
 .02758175,0.00174755,0.01457182,0.00676246,0.01272468,-0.03232356,0.04
 600186,0.57763650,0.00077293,-0.00093413,0.00751337,0.02261568,-0.0179
 0709,-0.03186996,0.01333572,0.05912450,0.46946990,-0.00370648,-0.00077
 847,-0.00062482,-0.00388779,0.00438054,0.00287202,-0.09683706,0.016572
 44,-0.03256341,0.56662074,0.00076321,0.00107885,-0.00038461,0.00254459
 ,-0.00216549,-0.00267671,0.01990392,-0.09893070,0.04003718,0.02208618,
 0.55772827,-0.00188326,-0.00135545,-0.00016271,0.00226058,-0.00149926,
 0.00177766,-0.04006563,0.04442337,-0.14676575,-0.03816852,0.04148090,0
 .50916471,-0.17071360,-0.06496958,0.00317905,-0.10503500,-0.01859876,-
 0.00241715,-0.14409113,0.00684970,0.06356956,0.01841852,-0.00501943,-0
 .00424560,0.48310899,-0.06494865,-0.12059630,-0.01982105,-0.02786392,-
 0.27906815,-0.30585152,0.00255160,-0.08438192,0.00475940,-0.01258394,-
 0.00027998,0.01406892,0.10487395,0.48903935,0.00628127,-0.01936649,-0.
 10533882,-0.01660789,-0.31632685,-0.58852192,0.06329821,0.00209715,-0.
 14351985,0.01324468,0.00432589,-0.03294135,-0.09366813,0.31131724,0.86
 446821,-0.19508405,-0.04063821,0.11252557,0.00583112,0.00728935,0.0039
 5564,0.00131042,-0.00227464,-0.00176686,-0.00066760,-0.00028347,0.0002
 9926,-0.05929329,-0.02042387,0.02867648,0.47390455,-0.03215082,-0.0521
 9698,-0.03503068,0.00072743,-0.00071321,0.00352274,-0.00364753,-0.0008
 2096,-0.00260474,0.00047176,0.00000799,-0.00043136,-0.02766254,-0.0014
 6107,0.02076079,0.27294507,0.33535440,0.14086415,-0.02805723,-0.191699
 10,-0.00622551,-0.00558752,-0.00627007,-0.00315396,-0.00260674,0.00077
 413,0.00000412,0.00035634,0.00023840,0.02237207,0.01852880,0.01230609,
 -0.08129302,0.22581165,0.52610897,0.00051695,-0.00214250,-0.00029034,-
 0.00074124,-0.00135294,0.00411626,-0.06441028,0.05214302,0.01502063,-0
 .00337071,0.01291372,0.00123262,-0.00375688,0.02432276,0.00186275,-0.0
 0051963,-0.00011989,0.00040268,0.06314214,-0.00098766,0.00050463,0.000
 90685,0.00125259,0.00055943,0.00106581,0.05395747,-0.28948046,-0.05859
 016,0.00379435,-0.01388227,-0.00176711,-0.00136087,-0.00132883,-0.0023
 2876,0.00035372,0.00033641,-0.00023875,-0.06088682,0.31380549,-0.00144
 056,0.00166518,0.00070529,0.00298445,0.00246723,-0.00604554,0.01647604
 ,-0.05938565,-0.05582974,-0.00774576,0.02931131,0.00532056,0.00352709,
 -0.02866987,-0.00603082,0.00030372,0.00024697,-0.00043794,-0.01539144,
 0.06091208,0.06698444,-0.00398224,-0.00029366,0.00442839,0.00328214,0.
 00107795,-0.00062582,-0.23799555,-0.10577219,-0.06436532,-0.00860738,-
 0.00419330,-0.00388685,-0.01927326,-0.01232574,-0.01032298,0.00011220,
 -0.00070737,-0.00070247,0.00848077,0.00343665,0.00279158,0.25723694,-0
 .00122440,0.00104257,0.00052341,0.00101619,0.00012584,0.00024275,-0.10
 932481,-0.11262202,-0.04029994,0.01485332,0.00825965,0.00534501,0.0011
 3859,-0.00223875,-0.00047179,0.00029755,0.00038605,-0.00033365,-0.0252
 3052,-0.01217369,-0.00757367,0.11741653,0.11699158,0.00589686,0.000557
 82,-0.00451349,-0.00148839,0.00043585,0.00072969,-0.07116631,-0.043387
 27,-0.07258510,-0.02316997,-0.01264939,-0.00908511,0.02171123,0.013144
 36,0.00820509,0.00049276,0.00075120,0.00059984,-0.00557170,-0.00252827
 ,-0.00259990,0.07330480,0.04092330,0.08166851,-0.00006080,0.00012079,-
 0.00004918,-0.00010069,-0.00021512,-0.00045350,-0.00342828,0.01233827,
 0.00222653,-0.06276195,0.05714174,0.01354218,0.00016532,-0.00042165,0.
 00102343,0.00000839,0.00004597,0.00003903,-0.00006817,0.00095100,-0.00
 253951,-0.00003859,0.00005553,0.00063226,0.06304500,-0.00063247,-0.000
 10141,0.00046306,-0.00040657,0.00054257,0.00100673,0.00267103,-0.01270
 591,-0.00111695,0.05780115,-0.29259261,-0.05517425,0.00109253,-0.00080
 384,-0.00166407,0.00010217,-0.00001128,-0.00005257,0.00096635,0.000449
 51,0.00244564,0.00003809,0.00064985,0.00003317,-0.06510871,0.31673780,
 0.00024459,-0.00034274,-0.00013996,-0.00014208,-0.00095954,-0.00016920
 ,-0.00626332,0.02830195,0.00407144,0.01419180,-0.05667675,-0.05997003,
 -0.00052311,0.00205417,0.00281898,-0.00005252,0.00008145,0.00000988,-0
 .00226724,0.00280232,-0.00473851,0.00038743,-0.00082780,0.00121486,-0.
 01252247,0.05724593,0.06468523,0.00106339,0.00009187,0.00065387,0.0009
 4994,-0.00082666,-0.00062234,0.00996811,0.00089511,-0.01351310,-0.1705
 3569,0.00206311,0.13810310,-0.00317047,0.00148779,-0.00221730,0.000351
 18,0.00004410,-0.00009919,0.00045437,-0.00053370,0.00087328,0.00062129
 ,-0.00056163,0.00061015,-0.00494218,-0.00038550,0.00383234,0.18202683,
 -0.00068028,-0.00009569,0.00040578,-0.00079592,0.00108266,0.00108285,-
 0.01071654,-0.00115139,0.01260277,0.00284994,-0.04737322,-0.00451564,0
 .00268322,-0.00185509,0.00120543,0.00016108,0.00006417,-0.00019076,-0.
 00075135,0.00036842,-0.00053294,0.00011715,0.00045208,-0.00070116,0.02
 133170,0.00115415,-0.02349401,-0.00426302,0.04755683,0.00106193,0.0002
 6661,0.00039103,0.00133071,-0.00102942,-0.00103587,0.01708309,0.001065
 44,-0.02168832,0.13680261,-0.00395724,-0.19710676,-0.00602084,0.002572
 30,-0.00163056,0.00030106,-0.00013255,0.00001101,0.00023550,-0.0001179
 1,0.00132514,0.00007798,-0.00079918,0.00070537,0.00365738,-0.00019263,
 -0.00477836,-0.14762113,0.00134248,0.21515701,0.00049396,-0.00001699,0
 .00100554,0.00041086,0.00004938,-0.00007990,-0.01027586,-0.00500462,-0
 .00434011,-0.23477293,-0.10795901,-0.06706255,-0.00118836,-0.00043955,
 0.00042570,0.00029604,0.00013694,-0.00007759,0.00010270,0.00003970,0.0
 0026879,0.00052052,0.00164955,-0.00159456,0.00817381,0.00388183,0.0030
 8926,-0.01674971,-0.00992772,-0.00688928,0.25300941,0.00035899,-0.0002
 3869,0.00041604,-0.00005544,0.00005431,-0.00000400,0.01476207,0.007830
 25,0.00514487,-0.10930603,-0.11185765,-0.04051239,-0.00041110,0.000445
 78,-0.00058220,-0.00005477,-0.00013015,-0.00002715,0.00011074,0.000824
 81,-0.00084046,0.00124259,-0.00089351,0.00337752,-0.02623140,-0.013266
 70,-0.00819166,0.00197309,-0.00017190,0.00092283,0.11762265,0.11736548
 ,0.00080402,0.00053594,0.00057452,0.00086761,0.00052446,-0.00001653,-0
 .02283937,-0.01264033,-0.01031843,-0.06500105,-0.03908196,-0.07057056,
 -0.00339088,-0.00256984,0.00037007,0.00076384,0.00019652,-0.00035459,0
 .00070571,-0.00017556,0.00126354,-0.00147294,0.00320244,-0.00398755,-0
 .00555694,-0.00306373,-0.00297029,0.02000322,0.01271516,0.00871988,0.0
 7523542,0.04033527,0.07723098,-0.00127237,0.01123899,0.02953166,-0.002
 52090,-0.00220511,-0.00178448,-0.00022676,-0.00014890,-0.00043259,0.00
 012031,-0.00001747,-0.00005044,0.00316700,0.00396206,0.00302082,-0.050
 27778,-0.04862903,-0.04017476,0.00013983,-0.00003295,-0.00009938,-0.00
 014286,-0.00008976,0.00006450,-0.00000448,-0.00001663,0.00001580,-0.00
 005035,0.00000119,-0.00004220,-0.00005235,0.00000994,-0.00012668,0.048
 77412,0.00070764,0.00372315,0.00248723,-0.00205205,-0.00239312,-0.0004
 9276,0.00013674,-0.00012039,-0.00016621,-0.00008238,-0.00000569,-0.000
 04869,0.00035648,0.00104984,0.00227028,-0.03898702,-0.09278567,-0.1411
 2129,0.00006379,0.00002739,-0.00007417,-0.00004773,-0.00000498,0.00001
 348,-0.00000241,-0.00003340,0.00001289,0.00000735,-0.00001077,0.000033
 31,0.00000039,0.00002118,0.00000916,0.03878812,0.09374044,0.00530705,-
 0.00499336,-0.01889829,-0.00218681,0.00067783,0.00294877,0.00012516,0.
 00018299,0.00011231,0.00004927,-0.00005002,0.00000342,-0.00388015,-0.0
 0447500,-0.00322885,-0.02372318,-0.14380518,-0.28038413,-0.00008112,0.
 00006285,0.00006119,0.00009717,0.00005650,-0.00005568,0.00001898,0.000
 04674,-0.00001676,0.00001627,0.00004992,-0.00001865,0.00003495,-0.0000
 4369,0.00007368,0.02422889,0.14864485,0.29579979,-0.02370955,-0.017029
 89,-0.00135408,0.00040066,-0.00036709,-0.00104874,-0.00082286,-0.00078
 076,-0.00055966,-0.00001200,0.00005621,-0.00007487,0.00166215,0.001809
 15,0.00498295,-0.17597156,-0.16145408,-0.03195557,0.00003014,0.0000165
 2,-0.00000829,-0.00021398,0.00000387,0.00027837,0.00001263,-0.00000328
 ,0.00000951,0.00001328,-0.00000945,0.00002319,0.00003192,-0.00002133,0
 .00000804,0.00234658,0.00111105,-0.00000649,0.19623259,0.00402936,0.00
 111123,0.00251902,-0.00031458,0.00016944,0.00051637,0.00005015,0.00027
 477,-0.00004950,-0.00005887,0.00001286,-0.00001404,0.00102781,0.001478
 96,-0.00123660,-0.17848697,-0.18802969,-0.06648114,-0.00003636,-0.0000
 1084,0.00002835,0.00001104,0.00002532,0.00002937,-0.00000572,-0.000018
 73,-0.00000620,0.00000808,-0.00002025,0.00002597,-0.00003255,0.0000167
 8,0.00001247,-0.00286047,-0.00320797,0.00364557,0.17666908,0.18819812,
 0.02540453,0.02318324,0.00238268,-0.00158332,0.00119048,0.00364944,0.0
 0094950,0.00057632,0.00063599,0.00010902,-0.00003492,0.00009752,-0.000
 21315,-0.00505791,-0.00695626,-0.04048274,-0.06936681,-0.06090247,0.00
 002569,-0.00000340,0.00002229,0.00028902,0.00001263,-0.00029654,-0.000
 01818,0.00002293,-0.00001729,-0.00001918,0.00003011,-0.00005092,-0.000
 01568,0.00000504,-0.00001471,-0.01415116,-0.01156808,0.00360321,0.0297
 0564,0.06101037,0.05784706\\-0.00000036,0.00000031,-0.00000007,0.00000
 009,-0.00000012,0.00000003,0.00000004,-0.00000043,0.00000011,0.0000003
 9,-0.00000016,0.00000007,-0.00000004,-0.00000013,0.,-0.00000037,0.0000
 0054,-0.00000014,-0.00000034,-0.00000052,0.00000007,0.00000019,-0.0000
 0080,0.00000019,0.00000078,-0.00000007,0.00000009,0.00000046,-0.000000
 41,0.00000014,0.00000024,0.00000020,-0.00000002,-0.00000035,0.00000061
 ,-0.00000017,-0.00000073,0.00000098,-0.00000030\\\@


 FIREWORKS ENDED
 AND SPECTATORS GONE AWAY....
 AH, HOW VAST AND DARK
                     SHIKI
 Job cpu time:       0 days  1 hours 52 minutes 15.3 seconds.
 Elapsed time:       0 days  0 hours  5 minutes 37.2 seconds.
 File lengths (MBytes):  RWF=   1392 Int=      0 D2E=      0 Chk=     32 Scr=     32
 Normal termination of Gaussian 16 at Tue Apr  9 02:40:02 2019.
