 Entering Gaussian System, Link 0=g16
 Input=OJWHOIQFDAGZNF-UHFFFAOYSA-N_GeoFreq_c4_a1.com
 Output=OJWHOIQFDAGZNF-UHFFFAOYSA-N_GeoFreq_c4_a1.log
 Initial command:
 /shared/centos7/gaussian/g16/l1.exe "/scratch/underkoffler.c/gaussian_scratch/Gau-26613.inp" -scrdir="/scratch/underkoffler.c/gaussian_scratch/"
 Entering Link 1 = /shared/centos7/gaussian/g16/l1.exe PID=     26614.
  
 Copyright (c) 1988,1990,1992,1993,1995,1998,2003,2009,2016,
            Gaussian, Inc.  All Rights Reserved.
  
 This is part of the Gaussian(R) 16 program.  It is based on
 the Gaussian(R) 09 system (copyright 2009, Gaussian, Inc.),
 the Gaussian(R) 03 system (copyright 2003, Gaussian, Inc.),
 the Gaussian(R) 98 system (copyright 1998, Gaussian, Inc.),
 the Gaussian(R) 94 system (copyright 1995, Gaussian, Inc.),
 the Gaussian 92(TM) system (copyright 1992, Gaussian, Inc.),
 the Gaussian 90(TM) system (copyright 1990, Gaussian, Inc.),
 the Gaussian 88(TM) system (copyright 1988, Gaussian, Inc.),
 the Gaussian 86(TM) system (copyright 1986, Carnegie Mellon
 University), and the Gaussian 82(TM) system (copyright 1983,
 Carnegie Mellon University). Gaussian is a federally registered
 trademark of Gaussian, Inc.
  
 This software contains proprietary and confidential information,
 including trade secrets, belonging to Gaussian, Inc.
  
 This software is provided under written license and may be
 used, copied, transmitted, or stored only in accord with that
 written license.
  
 The following legend is applicable only to US Government
 contracts under FAR:
  
                    RESTRICTED RIGHTS LEGEND
  
 Use, reproduction and disclosure by the US Government is
 subject to restrictions as set forth in subparagraphs (a)
 and (c) of the Commercial Computer Software - Restricted
 Rights clause in FAR 52.227-19.
  
 Gaussian, Inc.
 340 Quinnipiac St., Bldg. 40, Wallingford CT 06492
  
  
 ---------------------------------------------------------------
 Warning -- This program may not be used in any manner that
 competes with the business of Gaussian, Inc. or will provide
 assistance to any competitor of Gaussian, Inc.  The licensee
 of this program is prohibited from giving any competitor of
 Gaussian, Inc. access to this program.  By using this program,
 the user acknowledges that Gaussian, Inc. is engaged in the
 business of creating and licensing software in the field of
 computational chemistry and represents and warrants to the
 licensee that it is not a competitor of Gaussian, Inc. and that
 it will not use this program in any manner prohibited above.
 ---------------------------------------------------------------
  

 Cite this work as:
 Gaussian 16, Revision A.03,
 M. J. Frisch, G. W. Trucks, H. B. Schlegel, G. E. Scuseria, 
 M. A. Robb, J. R. Cheeseman, G. Scalmani, V. Barone, 
 G. A. Petersson, H. Nakatsuji, X. Li, M. Caricato, A. V. Marenich, 
 J. Bloino, B. G. Janesko, R. Gomperts, B. Mennucci, H. P. Hratchian, 
 J. V. Ortiz, A. F. Izmaylov, J. L. Sonnenberg, D. Williams-Young, 
 F. Ding, F. Lipparini, F. Egidi, J. Goings, B. Peng, A. Petrone, 
 T. Henderson, D. Ranasinghe, V. G. Zakrzewski, J. Gao, N. Rega, 
 G. Zheng, W. Liang, M. Hada, M. Ehara, K. Toyota, R. Fukuda, 
 J. Hasegawa, M. Ishida, T. Nakajima, Y. Honda, O. Kitao, H. Nakai, 
 T. Vreven, K. Throssell, J. A. Montgomery, Jr., J. E. Peralta, 
 F. Ogliaro, M. J. Bearpark, J. J. Heyd, E. N. Brothers, K. N. Kudin, 
 V. N. Staroverov, T. A. Keith, R. Kobayashi, J. Normand, 
 K. Raghavachari, A. P. Rendell, J. C. Burant, S. S. Iyengar, 
 J. Tomasi, M. Cossi, J. M. Millam, M. Klene, C. Adamo, R. Cammi, 
 J. W. Ochterski, R. L. Martin, K. Morokuma, O. Farkas, 
 J. B. Foresman, and D. J. Fox, Gaussian, Inc., Wallingford CT, 2016.
 
 ******************************************
 Gaussian 16:  EM64L-G16RevA.03 25-Dec-2016
                 9-Apr-2019 
 ******************************************
 %nprocshared=20
 Will use up to   20 processors via shared memory.
 %mem=5GB
 ----------------------------------------------------------------------
 #p m062x/6-311+g(2df,2p) opt=(calcfc,verytight,gdiis,maxcycles=900) fr
 eq iop(7/33=1,2/16=3)
 ----------------------------------------------------------------------

 Warning!  Use of Opt=GDIIS is deprecated since it is seldom a good choice.

 1/6=900,7=1,10=4,18=20,19=11,26=3,38=1/1,3;
 2/9=110,12=2,16=3,17=6,18=5,40=1/2;
 3/5=4,6=6,7=214,11=2,25=1,30=1,71=2,74=-55,140=1/1,2,3;
 4//1;
 5/5=2,38=5/2;
 8/6=4,10=90,11=11/1;
 11/6=1,8=1,9=11,15=111,16=1/1,2,10;
 10/6=1,13=1/2;
 6/7=2,8=2,9=2,10=2,28=1/1;
 7/10=1,18=20,25=1,33=1/1,2,3,16;
 1/6=900,7=1,10=4,18=20,19=11,26=3/3(2);
 2/9=110,16=3/2;
 99//99;
 2/9=110,16=3/2;
 3/5=4,6=6,7=214,11=2,25=1,30=1,71=1,74=-55/1,2,3;
 4/5=5,16=3,69=1/1;
 5/5=2,38=5/2;
 7/33=1/1,2,3,16;
 1/6=900,7=1,18=20,19=11,26=3/3(-5);
 2/9=110,16=3/2;
 6/7=2,8=2,9=2,10=2,19=2,28=1/1;
 99/9=1/99;
 Leave Link    1 at Tue Apr  9 02:08:34 2019, MaxMem=   671088640 cpu:              26.3 elap:               1.4
 (Enter /shared/centos7/gaussian/g16/l101.exe)
 ------------------------------
 Gaussian input prepared by ASE
 ------------------------------
 Symbolic Z-matrix:
 Charge =  0 Multiplicity = 2
 O                     1.60987   0.02647   1.02097 
 O                     0.55539  -1.28527  -0.58603 
 C                    -0.49624  -0.98056   1.59788 
 C                    -0.02636  -1.66394   2.85015 
 C                     0.56021  -0.79156   0.58262 
 C                     2.57803   0.31122   0.01228 
 H                    -0.90075   0.01885   1.86174 
 H                    -1.34746  -1.55187   1.14838 
 H                    -0.42335  -1.15093   3.75845 
 H                     1.09029  -1.66324   2.92047 
 H                    -0.36032  -2.70938   2.88052 
 H                     3.50246   0.6731    0.47776 
 H                     2.65577  -0.46585  -0.75573 
 
 Add atom      6 valence  3 ND=      2 dihedral       1      6     12     13
 ITRead=  0  0  0  0  0  0  0  0  0  0  0  0  0
 MicOpt= -1 -1 -1 -1 -1 -1 -1 -1 -1 -1 -1 -1 -1
 NAtoms=     13 NQM=       13 NQMF=       0 NMMI=      0 NMMIF=      0
                NMic=       0 NMicF=      0.
                    Isotopes and Nuclear Properties:
 (Nuclear quadrupole moments (NQMom) in fm**2, nuclear magnetic moments (NMagM)
  in nuclear magnetons)

  Atom         1           2           3           4           5           6           7           8           9          10
 IAtWgt=          16          16          12          12          12          12           1           1           1           1
 AtmWgt=  15.9949146  15.9949146  12.0000000  12.0000000  12.0000000  12.0000000   1.0078250   1.0078250   1.0078250   1.0078250
 NucSpn=           0           0           0           0           0           0           1           1           1           1
 AtZEff=  -0.0000000  -0.0000000  -0.0000000  -0.0000000  -0.0000000  -0.0000000  -0.0000000  -0.0000000  -0.0000000  -0.0000000
 NQMom=    0.0000000   0.0000000   0.0000000   0.0000000   0.0000000   0.0000000   0.0000000   0.0000000   0.0000000   0.0000000
 NMagM=    0.0000000   0.0000000   0.0000000   0.0000000   0.0000000   0.0000000   2.7928460   2.7928460   2.7928460   2.7928460
 AtZNuc=   8.0000000   8.0000000   6.0000000   6.0000000   6.0000000   6.0000000   1.0000000   1.0000000   1.0000000   1.0000000

  Atom        11          12          13
 IAtWgt=           1           1           1
 AtmWgt=   1.0078250   1.0078250   1.0078250
 NucSpn=           1           1           1
 AtZEff=  -0.0000000  -0.0000000  -0.0000000
 NQMom=    0.0000000   0.0000000   0.0000000
 NMagM=    2.7928460   2.7928460   2.7928460
 AtZNuc=   1.0000000   1.0000000   1.0000000
 Leave Link  101 at Tue Apr  9 02:08:35 2019, MaxMem=   671088640 cpu:               7.5 elap:               0.4
 (Enter /shared/centos7/gaussian/g16/l103.exe)

 GradGradGradGradGradGradGradGradGradGradGradGradGradGradGradGradGradGrad
 Berny optimization.
 Initialization pass.
                           ----------------------------
                           !    Initial Parameters    !
                           ! (Angstroms and Degrees)  !
 --------------------------                            --------------------------
 ! Name  Definition              Value          Derivative Info.                !
 --------------------------------------------------------------------------------
 ! R1    R(1,5)                  1.4011         calculate D2E/DX2 analytically  !
 ! R2    R(1,6)                  1.4268         calculate D2E/DX2 analytically  !
 ! R3    R(2,5)                  1.2687         calculate D2E/DX2 analytically  !
 ! R4    R(3,4)                  1.502          calculate D2E/DX2 analytically  !
 ! R5    R(3,5)                  1.4774         calculate D2E/DX2 analytically  !
 ! R6    R(3,7)                  1.11           calculate D2E/DX2 analytically  !
 ! R7    R(3,8)                  1.1194         calculate D2E/DX2 analytically  !
 ! R8    R(4,9)                  1.1161         calculate D2E/DX2 analytically  !
 ! R9    R(4,10)                 1.1189         calculate D2E/DX2 analytically  !
 ! R10   R(4,11)                 1.0979         calculate D2E/DX2 analytically  !
 ! R11   R(6,12)                 1.0964         calculate D2E/DX2 analytically  !
 ! R12   R(6,13)                 1.0953         calculate D2E/DX2 analytically  !
 ! A1    A(5,1,6)              113.8081         calculate D2E/DX2 analytically  !
 ! A2    A(4,3,5)              114.0451         calculate D2E/DX2 analytically  !
 ! A3    A(4,3,7)              108.9942         calculate D2E/DX2 analytically  !
 ! A4    A(4,3,8)              109.9057         calculate D2E/DX2 analytically  !
 ! A5    A(5,3,7)              107.9854         calculate D2E/DX2 analytically  !
 ! A6    A(5,3,8)              109.4585         calculate D2E/DX2 analytically  !
 ! A7    A(7,3,8)              106.1332         calculate D2E/DX2 analytically  !
 ! A8    A(3,4,9)              110.9832         calculate D2E/DX2 analytically  !
 ! A9    A(3,4,10)             111.3667         calculate D2E/DX2 analytically  !
 ! A10   A(3,4,11)             111.1702         calculate D2E/DX2 analytically  !
 ! A11   A(9,4,10)             107.6706         calculate D2E/DX2 analytically  !
 ! A12   A(9,4,11)             107.8765         calculate D2E/DX2 analytically  !
 ! A13   A(10,4,11)            107.6034         calculate D2E/DX2 analytically  !
 ! A14   A(1,5,2)              121.215          calculate D2E/DX2 analytically  !
 ! A15   A(1,5,3)              113.2918         calculate D2E/DX2 analytically  !
 ! A16   A(2,5,3)              125.4881         calculate D2E/DX2 analytically  !
 ! A17   A(1,6,12)             109.7446         calculate D2E/DX2 analytically  !
 ! A18   A(1,6,13)             113.7204         calculate D2E/DX2 analytically  !
 ! A19   A(12,6,13)            118.1633         calculate D2E/DX2 analytically  !
 ! D1    D(6,1,5,2)              4.3752         calculate D2E/DX2 analytically  !
 ! D2    D(6,1,5,3)           -174.8533         calculate D2E/DX2 analytically  !
 ! D3    D(5,1,6,12)          -162.3927         calculate D2E/DX2 analytically  !
 ! D4    D(5,1,6,13)           -27.5265         calculate D2E/DX2 analytically  !
 ! D5    D(5,3,4,9)            135.5687         calculate D2E/DX2 analytically  !
 ! D6    D(5,3,4,10)            15.6253         calculate D2E/DX2 analytically  !
 ! D7    D(5,3,4,11)          -104.359          calculate D2E/DX2 analytically  !
 ! D8    D(7,3,4,9)             14.8274         calculate D2E/DX2 analytically  !
 ! D9    D(7,3,4,10)          -105.116          calculate D2E/DX2 analytically  !
 ! D10   D(7,3,4,11)           134.8997         calculate D2E/DX2 analytically  !
 ! D11   D(8,3,4,9)           -101.0972         calculate D2E/DX2 analytically  !
 ! D12   D(8,3,4,10)           138.9593         calculate D2E/DX2 analytically  !
 ! D13   D(8,3,4,11)            18.975          calculate D2E/DX2 analytically  !
 ! D14   D(4,3,5,1)            -62.2402         calculate D2E/DX2 analytically  !
 ! D15   D(4,3,5,2)            118.5702         calculate D2E/DX2 analytically  !
 ! D16   D(7,3,5,1)             59.0621         calculate D2E/DX2 analytically  !
 ! D17   D(7,3,5,2)           -120.1276         calculate D2E/DX2 analytically  !
 ! D18   D(8,3,5,1)            174.1837         calculate D2E/DX2 analytically  !
 ! D19   D(8,3,5,2)             -5.006          calculate D2E/DX2 analytically  !
 ! D20   D(1,6,12,13)          132.6065         calculate D2E/DX2 analytically  !
 --------------------------------------------------------------------------------
 Trust Radius=3.00D-01 FncErr=1.00D-07 GrdErr=1.00D-06 EigMax=2.50D+02 EigMin=1.00D-04
 Number of steps in this run=    100 maximum allowed number of steps=    100.
 GradGradGradGradGradGradGradGradGradGradGradGradGradGradGradGradGradGrad

 Leave Link  103 at Tue Apr  9 02:08:35 2019, MaxMem=   671088640 cpu:               0.1 elap:               0.0
 (Enter /shared/centos7/gaussian/g16/l202.exe)
                          Input orientation:                          
 ---------------------------------------------------------------------
 Center     Atomic      Atomic             Coordinates (Angstroms)
 Number     Number       Type             X           Y           Z
 ---------------------------------------------------------------------
      1          8           0        1.609871    0.026474    1.020970
      2          8           0        0.555385   -1.285266   -0.586033
      3          6           0       -0.496244   -0.980560    1.597878
      4          6           0       -0.026363   -1.663937    2.850151
      5          6           0        0.560212   -0.791562    0.582618
      6          6           0        2.578031    0.311217    0.012284
      7          1           0       -0.900754    0.018854    1.861737
      8          1           0       -1.347461   -1.551873    1.148383
      9          1           0       -0.423350   -1.150928    3.758452
     10          1           0        1.090291   -1.663245    2.920468
     11          1           0       -0.360322   -2.709380    2.880515
     12          1           0        3.502459    0.673100    0.477764
     13          1           0        2.655773   -0.465850   -0.755734
 ---------------------------------------------------------------------
                    Distance matrix (angstroms):
                    1          2          3          4          5
     1  O    0.000000
     2  O    2.327028   0.000000
     3  C    2.404716   2.442998   0.000000
     4  C    2.980043   3.505593   1.501992   0.000000
     5  C    1.401113   1.268666   1.477353   2.499363   0.000000
     6  C    1.426836   2.645342   3.692420   4.328694   2.369176
     7  H    2.647675   3.132514   1.109990   2.138529   2.104124
     8  H    3.354582   2.588455   1.119381   2.157284   2.130112
     9  H    3.607502   4.455393   2.168506   1.116149   3.344019
    10  H    2.594842   3.567148   2.175407   1.118866   2.550756
    11  H    3.850255   3.857924   2.156954   1.097908   3.131412
    12  H    2.072460   3.694875   4.469773   4.852067   3.288320
    13  H    2.119663   2.260944   3.967320   4.650987   2.507718
                    6          7          8          9         10
     6  C    0.000000
     7  H    3.950683   0.000000
     8  H    4.491248   1.782023   0.000000
     9  H    5.017962   2.278999   2.797713   0.000000
    10  H    3.816989   2.813295   3.015846   1.804383   0.000000
    11  H    5.097517   2.961965   2.305331   1.789837   1.788931
    12  H    1.096448   4.661727   5.377914   5.431572   4.152574
    13  H    1.095321   4.442406   4.564098   5.507106   4.171205
                   11         12         13
    11  H    0.000000
    12  H    5.668815   0.000000
    13  H    5.229968   1.880320   0.000000
 Stoichiometry    C4H7O2(2)
 Framework group  C1[X(C4H7O2)]
 Deg. of freedom    33
 Full point group                 C1      NOp   1
 Largest Abelian subgroup         C1      NOp   1
 Largest concise Abelian subgroup C1      NOp   1
                         Standard orientation:                         
 ---------------------------------------------------------------------
 Center     Atomic      Atomic             Coordinates (Angstroms)
 Number     Number       Type             X           Y           Z
 ---------------------------------------------------------------------
      1          8           0        0.805373   -0.765428    0.229500
      2          8           0        0.670592    1.504792   -0.263444
      3          6           0       -1.330237    0.312592    0.473836
      4          6           0       -2.104521   -0.632831   -0.399456
      5          6           0        0.096151    0.436985    0.109809
      6          6           0        2.206330   -0.633780   -0.006827
      7          1           0       -1.386247   -0.038784    1.525252
      8          1           0       -1.808704    1.324441    0.458129
      9          1           0       -2.763162   -1.293962    0.212823
     10          1           0       -1.421854   -1.290266   -0.994105
     11          1           0       -2.740573   -0.086870   -1.108515
     12          1           0        2.642296   -1.619531   -0.207889
     13          1           0        2.464192    0.192258   -0.678316
 ---------------------------------------------------------------------
 Rotational constants (GHZ):           6.4423076           2.5541762           2.0025293
 Leave Link  202 at Tue Apr  9 02:08:35 2019, MaxMem=   671088640 cpu:               0.0 elap:               0.0
 (Enter /shared/centos7/gaussian/g16/l301.exe)
 Standard basis: 6-311+G(2df,2p) (5D, 7F)
 Ernie: Thresh=  0.10000D-02 Tol=  0.10000D-05 Strict=F.
 There are   297 symmetry adapted cartesian basis functions of A   symmetry.
 There are   267 symmetry adapted basis functions of A   symmetry.
   267 basis functions,   389 primitive gaussians,   297 cartesian basis functions
    24 alpha electrons       23 beta electrons
       nuclear repulsion energy       233.7323366145 Hartrees.
 IExCor= 4336 DFT=T Ex+Corr=M062X ExCW=0 ScaHFX=  0.540000
 ScaDFX=  1.000000  1.000000  1.000000  1.000000 ScalE2=  1.000000  1.000000
 IRadAn=      5 IRanWt=     -1 IRanGd=            0 ICorTp=0 IEmpDi=  4
 NAtoms=   13 NActive=   13 NUniq=   13 SFac= 1.00D+00 NAtFMM=   60 NAOKFM=F Big=F
 Integral buffers will be    131072 words long.
 Raffenetti 2 integral format.
 Two-electron integral symmetry is turned on.
 Leave Link  301 at Tue Apr  9 02:08:35 2019, MaxMem=   671088640 cpu:               0.8 elap:               0.1
 (Enter /shared/centos7/gaussian/g16/l302.exe)
 NPDir=0 NMtPBC=     1 NCelOv=     1 NCel=       1 NClECP=     1 NCelD=      1
         NCelK=      1 NCelE2=     1 NClLst=     1 CellRange=     0.0.
 One-electron integrals computed using PRISM.
 One-electron integral symmetry used in STVInt
 NBasis=   267 RedAO= T EigKep=  2.55D-05  NBF=   267
 NBsUse=   267 1.00D-06 EigRej= -1.00D+00 NBFU=   267
 Precomputing XC quadrature grid using
 IXCGrd= 4 IRadAn=           5 IRanWt=          -1 IRanGd=           0 AccXCQ= 0.00D+00.
 Generated NRdTot=       0 NPtTot=           0 NUsed=           0 NTot=          32
 NSgBfM=   297   297   297   297   297 MxSgAt=    13 MxSgA2=    13.
 Leave Link  302 at Tue Apr  9 02:08:35 2019, MaxMem=   671088640 cpu:               5.5 elap:               0.3
 (Enter /shared/centos7/gaussian/g16/l303.exe)
 DipDrv:  MaxL=1.
 Leave Link  303 at Tue Apr  9 02:08:35 2019, MaxMem=   671088640 cpu:               0.5 elap:               0.0
 (Enter /shared/centos7/gaussian/g16/l401.exe)
 ExpMin= 4.38D-02 ExpMax= 8.59D+03 ExpMxC= 1.30D+03 IAcc=3 IRadAn=         5 AccDes= 0.00D+00
 Harris functional with IExCor= 1009 and IRadAn=       5 diagonalized for initial guess.
 HarFok:  IExCor= 1009 AccDes= 0.00D+00 IRadAn=         5 IDoV= 1 UseB2=F ITyADJ=14
 ICtDFT=  3500011 ScaDFX=  1.000000  1.000000  1.000000  1.000000
 FoFCou: FMM=F IPFlag=           0 FMFlag=      100000 FMFlg1=           0
         NFxFlg=           0 DoJE=T BraDBF=F KetDBF=T FulRan=T
         wScrn=  0.000000 ICntrl=       500 IOpCl=  0 I1Cent=   200000004 NGrid=           0
         NMat0=    1 NMatS0=      1 NMatT0=    0 NMatD0=    1 NMtDS0=    0 NMtDT0=    0
 Petite list used in FoFCou.
 Harris En= -306.843303380503    
 JPrj=0 DoOrth=F DoCkMO=F.
 Initial guess <Sx>= 0.0000 <Sy>= 0.0000 <Sz>= 0.5000 <S**2>= 0.7500 S= 0.5000
 Leave Link  401 at Tue Apr  9 02:08:36 2019, MaxMem=   671088640 cpu:              14.6 elap:               0.7
 (Enter /shared/centos7/gaussian/g16/l502.exe)
 Integral symmetry usage will be decided dynamically.
 UHF open shell SCF:
 Using DIIS extrapolation, IDIIS=  1040.
 NGot=   671088640 LenX=   670903575 LenY=   670814925
 Requested convergence on RMS density matrix=1.00D-08 within 128 cycles.
 Requested convergence on MAX density matrix=1.00D-06.
 Requested convergence on             energy=1.00D-06.
 No special actions if energy rises.
 Fock matrices will be formed incrementally for  20 cycles.

 Cycle   1  Pass 1  IDiag  1:
 FoFJK:  IHMeth= 1 ICntrl=       0 DoSepK=F KAlg= 0 I1Cent=           0 FoldK=F
 IRaf= 970000000 NMat=       1 IRICut=       1 DoRegI=T DoRafI=F ISym2E= 0 IDoP0=0 IntGTp=1.
 FoFCou: FMM=F IPFlag=           0 FMFlag=      100000 FMFlg1=           0
         NFxFlg=           0 DoJE=F BraDBF=F KetDBF=F FulRan=T
         wScrn=  0.000000 ICntrl=         0 IOpCl=  1 I1Cent=           0 NGrid=           0
         NMat0=    1 NMatS0=      1 NMatT0=    0 NMatD0=    1 NMtDS0=    0 NMtDT0=    0
 Symmetry not used in FoFCou.
 E= -306.795304415701    
 DIIS: error= 1.82D-02 at cycle   1 NSaved=   1.
 NSaved= 1 IEnMin= 1 EnMin= -306.795304415701     IErMin= 1 ErrMin= 1.82D-02
 ErrMax= 1.82D-02  0.00D+00 EMaxC= 1.00D-01 BMatC= 1.02D+00 BMatP= 1.02D+00
 IDIUse=3 WtCom= 8.18D-01 WtEn= 1.82D-01
 Coeff-Com:  0.100D+01
 Coeff-En:   0.100D+01
 Coeff:      0.100D+01
 Gap=     0.286 Goal=   None    Shift=    0.000
 Gap=     0.226 Goal=   None    Shift=    0.000
 GapD=    0.226 DampG=1.000 DampE=0.500 DampFc=0.5000 IDamp=-1.
 Damping current iteration by 5.00D-01
 RMSDP=2.83D-03 MaxDP=1.06D-01              OVMax= 2.10D-01

 Cycle   2  Pass 1  IDiag  1:
 RMSU=  1.41D-03    CP:  9.94D-01
 E= -306.875334841979     Delta-E=       -0.080030426278 Rises=F Damp=T
 DIIS: error= 6.35D-03 at cycle   2 NSaved=   2.
 NSaved= 2 IEnMin= 2 EnMin= -306.875334841979     IErMin= 2 ErrMin= 6.35D-03
 ErrMax= 6.35D-03  0.00D+00 EMaxC= 1.00D-01 BMatC= 1.12D-01 BMatP= 1.02D+00
 IDIUse=3 WtCom= 9.37D-01 WtEn= 6.35D-02
 Coeff-Com:  0.509D-01 0.949D+00
 Coeff-En:   0.109D+00 0.891D+00
 Coeff:      0.545D-01 0.945D+00
 Gap=     0.388 Goal=   None    Shift=    0.000
 Gap=     0.333 Goal=   None    Shift=    0.000
 RMSDP=1.10D-03 MaxDP=9.21D-02 DE=-8.00D-02 OVMax= 1.35D-01

 Cycle   3  Pass 1  IDiag  1:
 RMSU=  9.91D-04    CP:  9.64D-01  7.48D-01
 E= -306.967369584004     Delta-E=       -0.092034742025 Rises=F Damp=F
 DIIS: error= 6.04D-03 at cycle   3 NSaved=   3.
 NSaved= 3 IEnMin= 3 EnMin= -306.967369584004     IErMin= 3 ErrMin= 6.04D-03
 ErrMax= 6.04D-03  0.00D+00 EMaxC= 1.00D-01 BMatC= 9.19D-02 BMatP= 1.12D-01
 IDIUse=3 WtCom= 9.40D-01 WtEn= 6.04D-02
 Coeff-Com: -0.679D-01 0.494D+00 0.573D+00
 Coeff-En:   0.000D+00 0.000D+00 0.100D+01
 Coeff:     -0.637D-01 0.465D+00 0.599D+00
 Gap=     0.287 Goal=   None    Shift=    0.000
 Gap=     0.311 Goal=   None    Shift=    0.000
 RMSDP=4.89D-04 MaxDP=1.63D-02 DE=-9.20D-02 OVMax= 6.20D-02

 Cycle   4  Pass 1  IDiag  1:
 RMSU=  4.20D-04    CP:  9.64D-01  8.97D-01  8.62D-01
 E= -306.982613683428     Delta-E=       -0.015244099424 Rises=F Damp=F
 DIIS: error= 2.68D-03 at cycle   4 NSaved=   4.
 NSaved= 4 IEnMin= 4 EnMin= -306.982613683428     IErMin= 4 ErrMin= 2.68D-03
 ErrMax= 2.68D-03  0.00D+00 EMaxC= 1.00D-01 BMatC= 1.29D-02 BMatP= 9.19D-02
 IDIUse=3 WtCom= 9.73D-01 WtEn= 2.68D-02
 Coeff-Com: -0.320D-01 0.766D-01 0.306D+00 0.650D+00
 Coeff-En:   0.000D+00 0.000D+00 0.956D-01 0.904D+00
 Coeff:     -0.312D-01 0.745D-01 0.300D+00 0.657D+00
 Gap=     0.289 Goal=   None    Shift=    0.000
 Gap=     0.312 Goal=   None    Shift=    0.000
 RMSDP=1.71D-04 MaxDP=9.54D-03 DE=-1.52D-02 OVMax= 1.42D-02

 Cycle   5  Pass 1  IDiag  1:
 RMSU=  9.93D-05    CP:  9.60D-01  8.56D-01  9.54D-01  8.08D-01
 E= -306.985299594395     Delta-E=       -0.002685910967 Rises=F Damp=F
 DIIS: error= 5.51D-04 at cycle   5 NSaved=   5.
 NSaved= 5 IEnMin= 5 EnMin= -306.985299594395     IErMin= 5 ErrMin= 5.51D-04
 ErrMax= 5.51D-04  0.00D+00 EMaxC= 1.00D-01 BMatC= 3.33D-04 BMatP= 1.29D-02
 IDIUse=3 WtCom= 9.94D-01 WtEn= 5.51D-03
 Coeff-Com: -0.450D-02-0.134D-02 0.558D-01 0.180D+00 0.770D+00
 Coeff-En:   0.000D+00 0.000D+00 0.000D+00 0.000D+00 0.100D+01
 Coeff:     -0.448D-02-0.133D-02 0.555D-01 0.179D+00 0.771D+00
 Gap=     0.290 Goal=   None    Shift=    0.000
 Gap=     0.313 Goal=   None    Shift=    0.000
 RMSDP=4.37D-05 MaxDP=2.89D-03 DE=-2.69D-03 OVMax= 6.98D-03

 Cycle   6  Pass 1  IDiag  1:
 RMSU=  4.01D-05    CP:  9.59D-01  8.53D-01  9.65D-01  8.23D-01  1.09D+00
 E= -306.985444492571     Delta-E=       -0.000144898176 Rises=F Damp=F
 DIIS: error= 2.87D-04 at cycle   6 NSaved=   6.
 NSaved= 6 IEnMin= 6 EnMin= -306.985444492571     IErMin= 6 ErrMin= 2.87D-04
 ErrMax= 2.87D-04  0.00D+00 EMaxC= 1.00D-01 BMatC= 1.42D-04 BMatP= 3.33D-04
 IDIUse=3 WtCom= 9.97D-01 WtEn= 2.87D-03
 Coeff-Com:  0.507D-02-0.189D-01-0.432D-01-0.775D-01 0.328D+00 0.807D+00
 Coeff-En:   0.000D+00 0.000D+00 0.000D+00 0.000D+00 0.000D+00 0.100D+01
 Coeff:      0.506D-02-0.188D-01-0.431D-01-0.773D-01 0.327D+00 0.807D+00
 Gap=     0.291 Goal=   None    Shift=    0.000
 Gap=     0.314 Goal=   None    Shift=    0.000
 RMSDP=3.03D-05 MaxDP=1.25D-03 DE=-1.45D-04 OVMax= 4.49D-03

 Cycle   7  Pass 1  IDiag  1:
 RMSU=  1.99D-05    CP:  9.59D-01  8.50D-01  9.72D-01  8.31D-01  1.27D+00
                    CP:  1.26D+00
 E= -306.985503300535     Delta-E=       -0.000058807964 Rises=F Damp=F
 DIIS: error= 1.47D-04 at cycle   7 NSaved=   7.
 NSaved= 7 IEnMin= 7 EnMin= -306.985503300535     IErMin= 7 ErrMin= 1.47D-04
 ErrMax= 1.47D-04  0.00D+00 EMaxC= 1.00D-01 BMatC= 2.30D-05 BMatP= 1.42D-04
 IDIUse=3 WtCom= 9.99D-01 WtEn= 1.47D-03
 Coeff-Com:  0.356D-02-0.686D-02-0.325D-01-0.887D-01-0.767D-01 0.305D+00
 Coeff-Com:  0.896D+00
 Coeff-En:   0.000D+00 0.000D+00 0.000D+00 0.000D+00 0.000D+00 0.000D+00
 Coeff-En:   0.100D+01
 Coeff:      0.355D-02-0.685D-02-0.325D-01-0.886D-01-0.766D-01 0.304D+00
 Coeff:      0.897D+00
 Gap=     0.292 Goal=   None    Shift=    0.000
 Gap=     0.314 Goal=   None    Shift=    0.000
 RMSDP=1.79D-05 MaxDP=7.47D-04 DE=-5.88D-05 OVMax= 3.04D-03

 Cycle   8  Pass 1  IDiag  1:
 RMSU=  8.51D-06    CP:  9.59D-01  8.49D-01  9.75D-01  8.32D-01  1.38D+00
                    CP:  1.50D+00  1.26D+00
 E= -306.985516975875     Delta-E=       -0.000013675340 Rises=F Damp=F
 DIIS: error= 3.31D-05 at cycle   8 NSaved=   8.
 NSaved= 8 IEnMin= 8 EnMin= -306.985516975875     IErMin= 8 ErrMin= 3.31D-05
 ErrMax= 3.31D-05  0.00D+00 EMaxC= 1.00D-01 BMatC= 2.60D-06 BMatP= 2.30D-05
 IDIUse=1 WtCom= 1.00D+00 WtEn= 0.00D+00
 Coeff-Com:  0.304D-03 0.371D-03-0.353D-02-0.160D-01-0.647D-01-0.135D-01
 Coeff-Com:  0.280D+00 0.817D+00
 Coeff:      0.304D-03 0.371D-03-0.353D-02-0.160D-01-0.647D-01-0.135D-01
 Coeff:      0.280D+00 0.817D+00
 Gap=     0.292 Goal=   None    Shift=    0.000
 Gap=     0.314 Goal=   None    Shift=    0.000
 RMSDP=5.43D-06 MaxDP=4.33D-04 DE=-1.37D-05 OVMax= 6.67D-04

 Cycle   9  Pass 1  IDiag  1:
 RMSU=  2.61D-06    CP:  9.59D-01  8.50D-01  9.74D-01  8.29D-01  1.39D+00
                    CP:  1.57D+00  1.41D+00  1.04D+00
 E= -306.985518047914     Delta-E=       -0.000001072040 Rises=F Damp=F
 DIIS: error= 9.33D-06 at cycle   9 NSaved=   9.
 NSaved= 9 IEnMin= 9 EnMin= -306.985518047914     IErMin= 9 ErrMin= 9.33D-06
 ErrMax= 9.33D-06  0.00D+00 EMaxC= 1.00D-01 BMatC= 1.85D-07 BMatP= 2.60D-06
 IDIUse=1 WtCom= 1.00D+00 WtEn= 0.00D+00
 Coeff-Com: -0.478D-03 0.979D-03 0.357D-02 0.102D-01 0.307D-02-0.331D-01
 Coeff-Com: -0.905D-01 0.475D-01 0.106D+01
 Coeff:     -0.478D-03 0.979D-03 0.357D-02 0.102D-01 0.307D-02-0.331D-01
 Coeff:     -0.905D-01 0.475D-01 0.106D+01
 Gap=     0.292 Goal=   None    Shift=    0.000
 Gap=     0.314 Goal=   None    Shift=    0.000
 RMSDP=2.11D-06 MaxDP=1.41D-04 DE=-1.07D-06 OVMax= 2.27D-04

 Cycle  10  Pass 1  IDiag  1:
 RMSU=  9.98D-07    CP:  9.59D-01  8.50D-01  9.73D-01  8.28D-01  1.39D+00
                    CP:  1.58D+00  1.45D+00  1.16D+00  1.23D+00
 E= -306.985518164488     Delta-E=       -0.000000116574 Rises=F Damp=F
 DIIS: error= 3.74D-06 at cycle  10 NSaved=  10.
 NSaved=10 IEnMin=10 EnMin= -306.985518164488     IErMin=10 ErrMin= 3.74D-06
 ErrMax= 3.74D-06  0.00D+00 EMaxC= 1.00D-01 BMatC= 1.89D-08 BMatP= 1.85D-07
 IDIUse=1 WtCom= 1.00D+00 WtEn= 0.00D+00
 Coeff-Com: -0.463D-04 0.514D-04 0.257D-03 0.152D-02 0.414D-02-0.895D-03
 Coeff-Com: -0.220D-01-0.469D-01 0.445D-01 0.102D+01
 Coeff:     -0.463D-04 0.514D-04 0.257D-03 0.152D-02 0.414D-02-0.895D-03
 Coeff:     -0.220D-01-0.469D-01 0.445D-01 0.102D+01
 Gap=     0.292 Goal=   None    Shift=    0.000
 Gap=     0.314 Goal=   None    Shift=    0.000
 RMSDP=5.76D-07 MaxDP=1.84D-05 DE=-1.17D-07 OVMax= 9.56D-05

 Cycle  11  Pass 1  IDiag  1:
 RMSU=  3.28D-07    CP:  9.59D-01  8.50D-01  9.73D-01  8.28D-01  1.39D+00
                    CP:  1.58D+00  1.45D+00  1.18D+00  1.34D+00  1.27D+00
 E= -306.985518179451     Delta-E=       -0.000000014963 Rises=F Damp=F
 DIIS: error= 1.70D-06 at cycle  11 NSaved=  11.
 NSaved=11 IEnMin=11 EnMin= -306.985518179451     IErMin=11 ErrMin= 1.70D-06
 ErrMax= 1.70D-06  0.00D+00 EMaxC= 1.00D-01 BMatC= 5.29D-09 BMatP= 1.89D-08
 IDIUse=1 WtCom= 1.00D+00 WtEn= 0.00D+00
 Coeff-Com:  0.627D-04-0.145D-03-0.532D-03-0.123D-02 0.774D-03 0.491D-02
 Coeff-Com:  0.885D-02-0.190D-01-0.178D+00 0.263D+00 0.922D+00
 Coeff:      0.627D-04-0.145D-03-0.532D-03-0.123D-02 0.774D-03 0.491D-02
 Coeff:      0.885D-02-0.190D-01-0.178D+00 0.263D+00 0.922D+00
 Gap=     0.292 Goal=   None    Shift=    0.000
 Gap=     0.314 Goal=   None    Shift=    0.000
 RMSDP=2.88D-07 MaxDP=1.22D-05 DE=-1.50D-08 OVMax= 3.76D-05

 Cycle  12  Pass 1  IDiag  1:
 RMSU=  1.42D-07    CP:  9.59D-01  8.51D-01  9.73D-01  8.28D-01  1.39D+00
                    CP:  1.57D+00  1.45D+00  1.18D+00  1.37D+00  1.47D+00
                    CP:  1.23D+00
 E= -306.985518183274     Delta-E=       -0.000000003823 Rises=F Damp=F
 DIIS: error= 8.38D-07 at cycle  12 NSaved=  12.
 NSaved=12 IEnMin=12 EnMin= -306.985518183274     IErMin=12 ErrMin= 8.38D-07
 ErrMax= 8.38D-07  0.00D+00 EMaxC= 1.00D-01 BMatC= 8.42D-10 BMatP= 5.29D-09
 IDIUse=1 WtCom= 1.00D+00 WtEn= 0.00D+00
 Coeff-Com:  0.194D-04-0.340D-04-0.165D-03-0.529D-03-0.572D-03 0.110D-02
 Coeff-Com:  0.583D-02 0.572D-02-0.429D-01-0.128D+00 0.159D+00 0.100D+01
 Coeff:      0.194D-04-0.340D-04-0.165D-03-0.529D-03-0.572D-03 0.110D-02
 Coeff:      0.583D-02 0.572D-02-0.429D-01-0.128D+00 0.159D+00 0.100D+01
 Gap=     0.292 Goal=   None    Shift=    0.000
 Gap=     0.314 Goal=   None    Shift=    0.000
 RMSDP=1.13D-07 MaxDP=5.35D-06 DE=-3.82D-09 OVMax= 1.96D-05

 Cycle  13  Pass 1  IDiag  1:
 RMSU=  7.49D-08    CP:  9.59D-01  8.51D-01  9.73D-01  8.28D-01  1.39D+00
                    CP:  1.57D+00  1.45D+00  1.18D+00  1.38D+00  1.52D+00
                    CP:  1.39D+00  1.19D+00
 E= -306.985518184079     Delta-E=       -0.000000000805 Rises=F Damp=F
 DIIS: error= 3.25D-07 at cycle  13 NSaved=  13.
 NSaved=13 IEnMin=13 EnMin= -306.985518184079     IErMin=13 ErrMin= 3.25D-07
 ErrMax= 3.25D-07  0.00D+00 EMaxC= 1.00D-01 BMatC= 1.71D-10 BMatP= 8.42D-10
 IDIUse=1 WtCom= 1.00D+00 WtEn= 0.00D+00
 Coeff-Com: -0.951D-05 0.216D-04 0.771D-04 0.160D-03-0.177D-03-0.712D-03
 Coeff-Com: -0.100D-02 0.355D-02 0.266D-01-0.641D-01-0.162D+00 0.150D+00
 Coeff-Com:  0.105D+01
 Coeff:     -0.951D-05 0.216D-04 0.771D-04 0.160D-03-0.177D-03-0.712D-03
 Coeff:     -0.100D-02 0.355D-02 0.266D-01-0.641D-01-0.162D+00 0.150D+00
 Coeff:      0.105D+01
 Gap=     0.292 Goal=   None    Shift=    0.000
 Gap=     0.314 Goal=   None    Shift=    0.000
 RMSDP=5.97D-08 MaxDP=2.90D-06 DE=-8.05D-10 OVMax= 1.06D-05

 Cycle  14  Pass 1  IDiag  1:
 RMSU=  3.22D-08    CP:  9.59D-01  8.51D-01  9.73D-01  8.28D-01  1.39D+00
                    CP:  1.57D+00  1.45D+00  1.18D+00  1.38D+00  1.53D+00
                    CP:  1.45D+00  1.43D+00  1.32D+00
 E= -306.985518184268     Delta-E=       -0.000000000188 Rises=F Damp=F
 DIIS: error= 1.72D-07 at cycle  14 NSaved=  14.
 NSaved=14 IEnMin=14 EnMin= -306.985518184268     IErMin=14 ErrMin= 1.72D-07
 ErrMax= 1.72D-07  0.00D+00 EMaxC= 1.00D-01 BMatC= 3.48D-11 BMatP= 1.71D-10
 IDIUse=1 WtCom= 1.00D+00 WtEn= 0.00D+00
 Coeff-Com: -0.337D-05 0.664D-05 0.343D-04 0.952D-04 0.884D-04-0.252D-03
 Coeff-Com: -0.981D-03-0.831D-03 0.991D-02 0.203D-01-0.329D-01-0.179D+00
 Coeff-Com:  0.483D-01 0.114D+01
 Coeff:     -0.337D-05 0.664D-05 0.343D-04 0.952D-04 0.884D-04-0.252D-03
 Coeff:     -0.981D-03-0.831D-03 0.991D-02 0.203D-01-0.329D-01-0.179D+00
 Coeff:      0.483D-01 0.114D+01
 Gap=     0.292 Goal=   None    Shift=    0.000
 Gap=     0.314 Goal=   None    Shift=    0.000
 RMSDP=3.18D-08 MaxDP=1.62D-06 DE=-1.88D-10 OVMax= 6.28D-06

 Cycle  15  Pass 1  IDiag  1:
 RMSU=  1.52D-08    CP:  9.59D-01  8.51D-01  9.73D-01  8.28D-01  1.39D+00
                    CP:  1.57D+00  1.45D+00  1.18D+00  1.39D+00  1.53D+00
                    CP:  1.46D+00  1.50D+00  1.59D+00  1.42D+00
 E= -306.985518184313     Delta-E=       -0.000000000045 Rises=F Damp=F
 DIIS: error= 9.50D-08 at cycle  15 NSaved=  15.
 NSaved=15 IEnMin=15 EnMin= -306.985518184313     IErMin=15 ErrMin= 9.50D-08
 ErrMax= 9.50D-08  0.00D+00 EMaxC= 1.00D-01 BMatC= 9.11D-12 BMatP= 3.48D-11
 IDIUse=1 WtCom= 1.00D+00 WtEn= 0.00D+00
 Coeff-Com:  0.205D-05-0.467D-05-0.117D-04-0.263D-04 0.463D-04 0.100D-03
 Coeff-Com:  0.167D-03-0.811D-03-0.480D-02 0.144D-01 0.348D-01-0.553D-01
 Coeff-Com: -0.214D+00 0.867D-01 0.114D+01
 Coeff:      0.205D-05-0.467D-05-0.117D-04-0.263D-04 0.463D-04 0.100D-03
 Coeff:      0.167D-03-0.811D-03-0.480D-02 0.144D-01 0.348D-01-0.553D-01
 Coeff:     -0.214D+00 0.867D-01 0.114D+01
 Gap=     0.292 Goal=   None    Shift=    0.000
 Gap=     0.314 Goal=   None    Shift=    0.000
 RMSDP=1.79D-08 MaxDP=9.33D-07 DE=-4.52D-11 OVMax= 3.62D-06

 Cycle  16  Pass 1  IDiag  1:
 RMSU=  6.12D-09    CP:  9.59D-01  8.51D-01  9.73D-01  8.28D-01  1.39D+00
                    CP:  1.57D+00  1.45D+00  1.18D+00  1.39D+00  1.52D+00
                    CP:  1.46D+00  1.52D+00  1.70D+00  1.73D+00  1.58D+00
 E= -306.985518184325     Delta-E=       -0.000000000012 Rises=F Damp=F
 DIIS: error= 4.96D-08 at cycle  16 NSaved=  16.
 NSaved=16 IEnMin=16 EnMin= -306.985518184325     IErMin=16 ErrMin= 4.96D-08
 ErrMax= 4.96D-08  0.00D+00 EMaxC= 1.00D-01 BMatC= 2.33D-12 BMatP= 9.11D-12
 IDIUse=1 WtCom= 1.00D+00 WtEn= 0.00D+00
 Coeff-Com:  0.133D-05-0.273D-05-0.118D-04-0.310D-04-0.879D-05 0.858D-04
 Coeff-Com:  0.306D-03 0.112D-04-0.391D-02-0.219D-02 0.185D-01 0.328D-01
 Coeff-Com: -0.633D-01-0.295D+00 0.275D+00 0.104D+01
 Coeff:      0.133D-05-0.273D-05-0.118D-04-0.310D-04-0.879D-05 0.858D-04
 Coeff:      0.306D-03 0.112D-04-0.391D-02-0.219D-02 0.185D-01 0.328D-01
 Coeff:     -0.633D-01-0.295D+00 0.275D+00 0.104D+01
 Gap=     0.292 Goal=   None    Shift=    0.000
 Gap=     0.314 Goal=   None    Shift=    0.000
 RMSDP=9.32D-09 MaxDP=4.85D-07 DE=-1.22D-11 OVMax= 2.14D-06

 SCF Done:  E(UM062X) =  -306.985518184     A.U. after   16 cycles
            NFock= 16  Conv=0.93D-08     -V/T= 2.0052
 <Sx>= 0.0000 <Sy>= 0.0000 <Sz>= 0.5000 <S**2>= 0.7545 S= 0.5022
 <L.S>= 0.000000000000E+00
 KE= 3.053883304581D+02 PE=-1.185247411817D+03 EE= 3.391412265596D+02
 Annihilation of the first spin contaminant:
 S**2 before annihilation     0.7545,   after     0.7500
 Leave Link  502 at Tue Apr  9 02:09:31 2019, MaxMem=   671088640 cpu:            1107.6 elap:              55.5
 (Enter /shared/centos7/gaussian/g16/l801.exe)
 DoSCS=F DFT=T ScalE2(SS,OS)=  1.000000  1.000000
 Range of M.O.s used for correlation:     1   267
 NBasis=   267 NAE=    24 NBE=    23 NFC=     0 NFV=     0
 NROrb=    267 NOA=    24 NOB=    23 NVA=   243 NVB=   244

 **** Warning!!: The largest alpha MO coefficient is  0.48301513D+02


 **** Warning!!: The largest beta MO coefficient is  0.49392718D+02

 Leave Link  801 at Tue Apr  9 02:09:31 2019, MaxMem=   671088640 cpu:               0.3 elap:               0.0
 (Enter /shared/centos7/gaussian/g16/l1101.exe)
 Using compressed storage, NAtomX=    13.
 Will process     14 centers per pass.
 Leave Link 1101 at Tue Apr  9 02:09:32 2019, MaxMem=   671088640 cpu:               5.9 elap:               0.3
 (Enter /shared/centos7/gaussian/g16/l1102.exe)
 Symmetrizing basis deriv contribution to polar:
 IMax=3 JMax=2 DiffMx= 0.00D+00
 Leave Link 1102 at Tue Apr  9 02:09:32 2019, MaxMem=   671088640 cpu:               0.5 elap:               0.0
 (Enter /shared/centos7/gaussian/g16/l1110.exe)
 Forming Gx(P) for the SCF density, NAtomX=    13.
 Integral derivatives from FoFJK, PRISM(SPDF).
 Do as many integral derivatives as possible in FoFJK.
 G2DrvN: MDV=     671087568.
 G2DrvN: will do    14 centers at a time, making    1 passes.
 Calling FoFCou, ICntrl=  3107 FMM=F I1Cent=   0 AccDes= 0.00D+00.
 FoFJK:  IHMeth= 1 ICntrl=    3107 DoSepK=F KAlg= 0 I1Cent=           0 FoldK=F
 IRaf=         0 NMat=       1 IRICut=       1 DoRegI=T DoRafI=F ISym2E= 0 IDoP0=0 IntGTp=1.
 FoFCou: FMM=F IPFlag=           0 FMFlag=      100000 FMFlg1=           0
         NFxFlg=           0 DoJE=F BraDBF=F KetDBF=F FulRan=T
         wScrn=  0.000000 ICntrl=      3107 IOpCl=  1 I1Cent=           0 NGrid=           0
         NMat0=    1 NMatS0=      1 NMatT0=    0 NMatD0=    1 NMtDS0=    0 NMtDT0=    0
 Symmetry not used in FoFCou.
 End of G2Drv F.D. properties file   721 does not exist.
 End of G2Drv F.D. properties file   722 does not exist.
 End of G2Drv F.D. properties file   788 does not exist.
 Leave Link 1110 at Tue Apr  9 02:10:59 2019, MaxMem=   671088640 cpu:            1737.2 elap:              86.9
 (Enter /shared/centos7/gaussian/g16/l1002.exe)
 Minotr:  UHF open shell wavefunction.
          IDoAtm=1111111111111
          Direct CPHF calculation.
          Differentiating once with respect to nuclear coordinates.
          Requested convergence is 1.0D-08 RMS, and 1.0D-07 maximum.
          Secondary convergence is 1.0D-12 RMS, and 1.0D-12 maximum.
          NewPWx=T KeepS1=F KeepF1=F KeepIn=T MapXYZ=F SortEE=F KeepMc=T.
         3966 words used for storage of precomputed grid.
 Two-electron integrals replicated using symmetry.
          MDV=     671088640 using IRadAn=       1.
          Solving linear equations simultaneously, MaxMat=     380.
 FoF2E skips out because all densities are zero.
 CalDSu exits because no D1Ps are significant.
 FoFJK:  IHMeth= 1 ICntrl=       0 DoSepK=F KAlg= 0 I1Cent=           0 FoldK=F
 IRaf= 960000000 NMat=      39 IRICut=      97 DoRegI=T DoRafI=T ISym2E= 2 IDoP0=3 IntGTp=3.
 FoFCou: FMM=F IPFlag=           0 FMFlag=      100000 FMFlg1=           0
         NFxFlg=           0 DoJE=F BraDBF=F KetDBF=F FulRan=T
         wScrn=  0.000000 ICntrl=         0 IOpCl=  1 I1Cent=           0 NGrid=           0
         NMat0=   39 NMatS0=     39 NMatT0=    0 NMatD0=   39 NMtDS0=    0 NMtDT0=    0
 Integrals replicated using symmetry in FoFCou.
 Raff kept on since  93.78% of shell-pairs survive, threshold=   0.20 IRatSp=94.
          There are    42 degrees of freedom in the 1st order CPHF.  IDoFFX=6 NUNeed=     0.
     36 vectors produced by pass  0 Test12= 2.72D-14 2.38D-09 XBig12= 1.51D-01 8.56D-02.
 AX will form    36 AO Fock derivatives at one time.
     36 vectors produced by pass  1 Test12= 2.72D-14 2.38D-09 XBig12= 2.24D-02 3.11D-02.
     36 vectors produced by pass  2 Test12= 2.72D-14 2.38D-09 XBig12= 8.54D-04 8.34D-03.
     36 vectors produced by pass  3 Test12= 2.72D-14 2.38D-09 XBig12= 1.41D-05 5.44D-04.
     36 vectors produced by pass  4 Test12= 2.72D-14 2.38D-09 XBig12= 1.98D-07 5.32D-05.
     36 vectors produced by pass  5 Test12= 2.72D-14 2.38D-09 XBig12= 3.19D-09 5.95D-06.
     35 vectors produced by pass  6 Test12= 2.72D-14 2.38D-09 XBig12= 3.49D-11 7.16D-07.
     18 vectors produced by pass  7 Test12= 2.72D-14 2.38D-09 XBig12= 2.58D-13 4.20D-08.
      2 vectors produced by pass  8 Test12= 2.72D-14 2.38D-09 XBig12= 1.41D-15 3.25D-09.
 InvSVY:  IOpt=1 It=  1 EMax= 2.66D-15
 Solved reduced A of dimension   271 with    36 vectors.
 End of Minotr F.D. properties file   721 does not exist.
 End of Minotr F.D. properties file   722 does not exist.
 End of Minotr F.D. properties file   788 does not exist.
 Leave Link 1002 at Tue Apr  9 02:13:16 2019, MaxMem=   671088640 cpu:            2752.3 elap:             137.6
 (Enter /shared/centos7/gaussian/g16/l601.exe)
 Copying SCF densities to generalized density rwf, IOpCl= 1 IROHF=0.

 **********************************************************************

            Population analysis using the SCF density.

 **********************************************************************

 Orbital symmetries:
 Alpha Orbitals:
       Occupied  (A) (A) (A) (A) (A) (A) (A) (A) (A) (A) (A) (A)
                 (A) (A) (A) (A) (A) (A) (A) (A) (A) (A) (A) (A)
       Virtual   (A) (A) (A) (A) (A) (A) (A) (A) (A) (A) (A) (A)
                 (A) (A) (A) (A) (A) (A) (A) (A) (A) (A) (A) (A)
                 (A) (A) (A) (A) (A) (A) (A) (A) (A) (A) (A) (A)
                 (A) (A) (A) (A) (A) (A) (A) (A) (A) (A) (A) (A)
                 (A) (A) (A) (A) (A) (A) (A) (A) (A) (A) (A) (A)
                 (A) (A) (A) (A) (A) (A) (A) (A) (A) (A) (A) (A)
                 (A) (A) (A) (A) (A) (A) (A) (A) (A) (A) (A) (A)
                 (A) (A) (A) (A) (A) (A) (A) (A) (A) (A) (A) (A)
                 (A) (A) (A) (A) (A) (A) (A) (A) (A) (A) (A) (A)
                 (A) (A) (A) (A) (A) (A) (A) (A) (A) (A) (A) (A)
                 (A) (A) (A) (A) (A) (A) (A) (A) (A) (A) (A) (A)
                 (A) (A) (A) (A) (A) (A) (A) (A) (A) (A) (A) (A)
                 (A) (A) (A) (A) (A) (A) (A) (A) (A) (A) (A) (A)
                 (A) (A) (A) (A) (A) (A) (A) (A) (A) (A) (A) (A)
                 (A) (A) (A) (A) (A) (A) (A) (A) (A) (A) (A) (A)
                 (A) (A) (A) (A) (A) (A) (A) (A) (A) (A) (A) (A)
                 (A) (A) (A) (A) (A) (A) (A) (A) (A) (A) (A) (A)
                 (A) (A) (A) (A) (A) (A) (A) (A) (A) (A) (A) (A)
                 (A) (A) (A) (A) (A) (A) (A) (A) (A) (A) (A) (A)
                 (A) (A) (A) (A) (A) (A) (A) (A) (A) (A) (A) (A)
                 (A) (A) (A)
 Beta  Orbitals:
       Occupied  (A) (A) (A) (A) (A) (A) (A) (A) (A) (A) (A) (A)
                 (A) (A) (A) (A) (A) (A) (A) (A) (A) (A) (A)
       Virtual   (A) (A) (A) (A) (A) (A) (A) (A) (A) (A) (A) (A)
                 (A) (A) (A) (A) (A) (A) (A) (A) (A) (A) (A) (A)
                 (A) (A) (A) (A) (A) (A) (A) (A) (A) (A) (A) (A)
                 (A) (A) (A) (A) (A) (A) (A) (A) (A) (A) (A) (A)
                 (A) (A) (A) (A) (A) (A) (A) (A) (A) (A) (A) (A)
                 (A) (A) (A) (A) (A) (A) (A) (A) (A) (A) (A) (A)
                 (A) (A) (A) (A) (A) (A) (A) (A) (A) (A) (A) (A)
                 (A) (A) (A) (A) (A) (A) (A) (A) (A) (A) (A) (A)
                 (A) (A) (A) (A) (A) (A) (A) (A) (A) (A) (A) (A)
                 (A) (A) (A) (A) (A) (A) (A) (A) (A) (A) (A) (A)
                 (A) (A) (A) (A) (A) (A) (A) (A) (A) (A) (A) (A)
                 (A) (A) (A) (A) (A) (A) (A) (A) (A) (A) (A) (A)
                 (A) (A) (A) (A) (A) (A) (A) (A) (A) (A) (A) (A)
                 (A) (A) (A) (A) (A) (A) (A) (A) (A) (A) (A) (A)
                 (A) (A) (A) (A) (A) (A) (A) (A) (A) (A) (A) (A)
                 (A) (A) (A) (A) (A) (A) (A) (A) (A) (A) (A) (A)
                 (A) (A) (A) (A) (A) (A) (A) (A) (A) (A) (A) (A)
                 (A) (A) (A) (A) (A) (A) (A) (A) (A) (A) (A) (A)
                 (A) (A) (A) (A) (A) (A) (A) (A) (A) (A) (A) (A)
                 (A) (A) (A) (A) (A) (A) (A) (A) (A) (A) (A) (A)
                 (A) (A) (A) (A)
 The electronic state is 2-A.
 Alpha  occ. eigenvalues --  -19.69508 -19.62602 -10.69198 -10.61079 -10.56541
 Alpha  occ. eigenvalues --  -10.54900  -1.22653  -1.12620  -0.91033  -0.80850
 Alpha  occ. eigenvalues --   -0.74057  -0.65248  -0.59241  -0.57270  -0.55430
 Alpha  occ. eigenvalues --   -0.51879  -0.50830  -0.47510  -0.44603  -0.44260
 Alpha  occ. eigenvalues --   -0.42119  -0.40906  -0.36123  -0.28708
 Alpha virt. eigenvalues --    0.00515   0.02539   0.03113   0.03399   0.04101
 Alpha virt. eigenvalues --    0.05035   0.06125   0.06789   0.08035   0.08317
 Alpha virt. eigenvalues --    0.09789   0.10350   0.10735   0.12647   0.13117
 Alpha virt. eigenvalues --    0.14837   0.16064   0.18065   0.19482   0.20135
 Alpha virt. eigenvalues --    0.21181   0.21510   0.23526   0.24805   0.25375
 Alpha virt. eigenvalues --    0.25734   0.26751   0.28116   0.29627   0.30811
 Alpha virt. eigenvalues --    0.31856   0.33362   0.35196   0.35992   0.37276
 Alpha virt. eigenvalues --    0.38789   0.42376   0.43857   0.45420   0.47101
 Alpha virt. eigenvalues --    0.47879   0.49810   0.50474   0.52903   0.54120
 Alpha virt. eigenvalues --    0.56307   0.56507   0.57328   0.58532   0.59448
 Alpha virt. eigenvalues --    0.60838   0.62119   0.63408   0.65418   0.66103
 Alpha virt. eigenvalues --    0.67768   0.68505   0.72581   0.76945   0.77387
 Alpha virt. eigenvalues --    0.79836   0.82059   0.85187   0.87112   0.88037
 Alpha virt. eigenvalues --    0.89639   0.92358   0.94651   0.95391   0.99167
 Alpha virt. eigenvalues --    1.01395   1.03531   1.05929   1.09098   1.09755
 Alpha virt. eigenvalues --    1.11633   1.13098   1.14831   1.17182   1.17645
 Alpha virt. eigenvalues --    1.18584   1.20329   1.21621   1.22211   1.23312
 Alpha virt. eigenvalues --    1.25559   1.27395   1.28632   1.31808   1.32101
 Alpha virt. eigenvalues --    1.32963   1.35550   1.37859   1.39148   1.40226
 Alpha virt. eigenvalues --    1.44019   1.45208   1.46632   1.48413   1.49507
 Alpha virt. eigenvalues --    1.52902   1.54808   1.55275   1.58910   1.60526
 Alpha virt. eigenvalues --    1.63820   1.66111   1.67900   1.70465   1.79703
 Alpha virt. eigenvalues --    1.81090   1.86748   2.03605   2.06598   2.10582
 Alpha virt. eigenvalues --    2.27891   2.28522   2.40384   2.40931   2.47818
 Alpha virt. eigenvalues --    2.48740   2.51633   2.56607   2.57404   2.67484
 Alpha virt. eigenvalues --    2.68265   2.75831   2.76931   2.79992   2.83215
 Alpha virt. eigenvalues --    2.83272   2.87437   2.94210   2.95167   2.95730
 Alpha virt. eigenvalues --    2.98453   2.99995   3.02113   3.03915   3.06042
 Alpha virt. eigenvalues --    3.07880   3.08964   3.13936   3.16434   3.16793
 Alpha virt. eigenvalues --    3.18785   3.20881   3.22734   3.23567   3.26120
 Alpha virt. eigenvalues --    3.27501   3.28448   3.32499   3.33152   3.36921
 Alpha virt. eigenvalues --    3.37410   3.41395   3.43462   3.46459   3.50003
 Alpha virt. eigenvalues --    3.50123   3.52771   3.56321   3.57392   3.60527
 Alpha virt. eigenvalues --    3.63927   3.69220   3.72954   3.74621   3.77755
 Alpha virt. eigenvalues --    3.82178   3.83310   3.84736   3.86959   3.88624
 Alpha virt. eigenvalues --    3.95375   3.97005   3.98331   4.01584   4.05162
 Alpha virt. eigenvalues --    4.08180   4.10074   4.12467   4.18185   4.18446
 Alpha virt. eigenvalues --    4.20941   4.22437   4.26215   4.28190   4.30437
 Alpha virt. eigenvalues --    4.33194   4.36086   4.40821   4.41704   4.46041
 Alpha virt. eigenvalues --    4.52400   4.62623   4.63011   4.71426   4.84322
 Alpha virt. eigenvalues --    5.03560   5.08669   5.10831   5.13294   5.17153
 Alpha virt. eigenvalues --    5.19418   5.20980   5.25645   5.33820   5.37341
 Alpha virt. eigenvalues --    5.41139   5.41520   5.43754   5.46134   5.50325
 Alpha virt. eigenvalues --    5.53680   5.55196   5.61572   5.63850   5.68827
 Alpha virt. eigenvalues --    5.80043   5.91712   6.14311   6.36440   6.50283
 Alpha virt. eigenvalues --    6.77684   6.82320   6.91069   6.95957   7.04847
 Alpha virt. eigenvalues --    7.15324   7.17615   7.26964   7.48269   7.59589
 Alpha virt. eigenvalues --    7.72758   7.76815  24.21194  24.21692  24.40972
 Alpha virt. eigenvalues --   24.63845  50.11614  50.19804
  Beta  occ. eigenvalues --  -19.69358 -19.62572 -10.69190 -10.60201 -10.56544
  Beta  occ. eigenvalues --  -10.54895  -1.22040  -1.12351  -0.90852  -0.79032
  Beta  occ. eigenvalues --   -0.73112  -0.64097  -0.58838  -0.56840  -0.54283
  Beta  occ. eigenvalues --   -0.51306  -0.50038  -0.46677  -0.44271  -0.43781
  Beta  occ. eigenvalues --   -0.41920  -0.39832  -0.36019
  Beta virt. eigenvalues --   -0.04587   0.00878   0.02173   0.03210   0.03842
  Beta virt. eigenvalues --    0.04090   0.05163   0.06083   0.07529   0.08020
  Beta virt. eigenvalues --    0.08339   0.09371   0.10320   0.11734   0.12576
  Beta virt. eigenvalues --    0.13062   0.14794   0.15486   0.18173   0.19411
  Beta virt. eigenvalues --    0.20816   0.21443   0.21704   0.24107   0.24644
  Beta virt. eigenvalues --    0.25456   0.25637   0.26981   0.28468   0.29377
  Beta virt. eigenvalues --    0.30746   0.31739   0.33397   0.35179   0.35669
  Beta virt. eigenvalues --    0.37312   0.38917   0.42363   0.43956   0.45427
  Beta virt. eigenvalues --    0.47293   0.47898   0.49879   0.50480   0.52982
  Beta virt. eigenvalues --    0.54353   0.56653   0.56729   0.57336   0.58952
  Beta virt. eigenvalues --    0.59775   0.61155   0.62321   0.63449   0.65631
  Beta virt. eigenvalues --    0.66207   0.67959   0.68400   0.72350   0.77002
  Beta virt. eigenvalues --    0.77408   0.79687   0.82113   0.85437   0.87141
  Beta virt. eigenvalues --    0.88080   0.89585   0.92351   0.94097   0.94825
  Beta virt. eigenvalues --    0.99144   1.01382   1.03100   1.06227   1.08931
  Beta virt. eigenvalues --    1.09810   1.11648   1.12950   1.14812   1.17217
  Beta virt. eigenvalues --    1.17610   1.18630   1.20345   1.21640   1.22299
  Beta virt. eigenvalues --    1.23333   1.25613   1.27534   1.28721   1.31855
  Beta virt. eigenvalues --    1.32080   1.32915   1.35641   1.37941   1.39601
  Beta virt. eigenvalues --    1.40443   1.44036   1.45286   1.46588   1.48607
  Beta virt. eigenvalues --    1.49790   1.52929   1.55248   1.55804   1.58867
  Beta virt. eigenvalues --    1.60461   1.64520   1.66270   1.68004   1.70525
  Beta virt. eigenvalues --    1.80027   1.81284   1.87146   2.03731   2.06831
  Beta virt. eigenvalues --    2.10801   2.28275   2.29266   2.40895   2.42214
  Beta virt. eigenvalues --    2.48362   2.49112   2.51834   2.56852   2.57899
  Beta virt. eigenvalues --    2.67663   2.68607   2.76020   2.77845   2.80110
  Beta virt. eigenvalues --    2.83618   2.84324   2.90669   2.95873   2.96919
  Beta virt. eigenvalues --    2.98715   3.00123   3.02979   3.05338   3.05806
  Beta virt. eigenvalues --    3.08002   3.08639   3.10515   3.15907   3.16986
  Beta virt. eigenvalues --    3.18931   3.21265   3.22796   3.24819   3.25421
  Beta virt. eigenvalues --    3.27079   3.28817   3.29708   3.33298   3.35835
  Beta virt. eigenvalues --    3.37658   3.39771   3.42925   3.44364   3.48247
  Beta virt. eigenvalues --    3.51136   3.52692   3.54512   3.56937   3.59405
  Beta virt. eigenvalues --    3.61644   3.66272   3.69702   3.73119   3.74844
  Beta virt. eigenvalues --    3.78700   3.82587   3.84590   3.86083   3.89046
  Beta virt. eigenvalues --    3.91685   3.96080   3.97266   3.98501   4.01903
  Beta virt. eigenvalues --    4.06166   4.09294   4.12312   4.14592   4.18392
  Beta virt. eigenvalues --    4.18790   4.23251   4.25110   4.27039   4.28626
  Beta virt. eigenvalues --    4.30668   4.33574   4.36184   4.41446   4.41875
  Beta virt. eigenvalues --    4.48059   4.52673   4.62777   4.63040   4.71512
  Beta virt. eigenvalues --    4.84542   5.06716   5.08833   5.12140   5.14170
  Beta virt. eigenvalues --    5.18189   5.19509   5.21706   5.27737   5.34502
  Beta virt. eigenvalues --    5.38083   5.41584   5.43185   5.46183   5.47771
  Beta virt. eigenvalues --    5.50559   5.53843   5.55534   5.62041   5.64527
  Beta virt. eigenvalues --    5.69308   5.80743   5.92496   6.14509   6.36890
  Beta virt. eigenvalues --    6.50741   6.77858   6.82641   6.91380   6.96067
  Beta virt. eigenvalues --    7.05122   7.15611   7.17874   7.27253   7.48432
  Beta virt. eigenvalues --    7.59685   7.72833   7.76829  24.21199  24.23204
  Beta virt. eigenvalues --   24.40978  24.63913  50.11493  50.19757
          Condensed to atoms (all electrons):
               1          2          3          4          5          6
     1  O    8.082397  -0.081003  -0.119910  -0.015797   0.217025   0.108607
     2  O   -0.081003   8.116143  -0.029927  -0.018417   0.456039  -0.053269
     3  C   -0.119910  -0.029927   6.032410   0.077189  -0.261544  -0.138214
     4  C   -0.015797  -0.018417   0.077189   5.300200  -0.139705  -0.008300
     5  C    0.217025   0.456039  -0.261544  -0.139705   5.578577  -0.035638
     6  C    0.108607  -0.053269  -0.138214  -0.008300  -0.035638   5.486751
     7  H   -0.006122   0.003026   0.431084  -0.063734  -0.034558   0.002027
     8  H    0.006286  -0.005360   0.462513  -0.020715  -0.073826  -0.001499
     9  H   -0.002391  -0.000777  -0.033250   0.391258   0.023182  -0.000198
    10  H    0.000932   0.002211  -0.057062   0.424768  -0.005782   0.002081
    11  H    0.000789   0.000525  -0.027517   0.428917  -0.015125  -0.000068
    12  H   -0.046735   0.002974   0.005704   0.000258   0.005240   0.404698
    13  H   -0.026549  -0.007499   0.005927  -0.000804  -0.003522   0.403057
               7          8          9         10         11         12
     1  O   -0.006122   0.006286  -0.002391   0.000932   0.000789  -0.046735
     2  O    0.003026  -0.005360  -0.000777   0.002211   0.000525   0.002974
     3  C    0.431084   0.462513  -0.033250  -0.057062  -0.027517   0.005704
     4  C   -0.063734  -0.020715   0.391258   0.424768   0.428917   0.000258
     5  C   -0.034558  -0.073826   0.023182  -0.005782  -0.015125   0.005240
     6  C    0.002027  -0.001499  -0.000198   0.002081  -0.000068   0.404698
     7  H    0.527749  -0.029182  -0.014984   0.003122   0.005705  -0.000029
     8  H   -0.029182   0.502681   0.002881   0.004607  -0.015244   0.000013
     9  H   -0.014984   0.002881   0.563195  -0.026216  -0.028315   0.000002
    10  H    0.003122   0.004607  -0.026216   0.543132  -0.029828   0.000044
    11  H    0.005705  -0.015244  -0.028315  -0.029828   0.536216  -0.000006
    12  H   -0.000029   0.000013   0.000002   0.000044  -0.000006   0.503871
    13  H   -0.000048   0.000015  -0.000001  -0.000032   0.000005  -0.030308
              13
     1  O   -0.026549
     2  O   -0.007499
     3  C    0.005927
     4  C   -0.000804
     5  C   -0.003522
     6  C    0.403057
     7  H   -0.000048
     8  H    0.000015
     9  H   -0.000001
    10  H   -0.000032
    11  H    0.000005
    12  H   -0.030308
    13  H    0.479285
          Atomic-Atomic Spin Densities.
               1          2          3          4          5          6
     1  O    0.115802  -0.003926   0.000056   0.000391   0.021521  -0.158486
     2  O   -0.003926   0.019033  -0.000361   0.000355  -0.003818   0.009215
     3  C    0.000056  -0.000361   0.019139  -0.011302  -0.003355  -0.013132
     4  C    0.000391   0.000355  -0.011302   0.020634  -0.009714  -0.000925
     5  C    0.021521  -0.003818  -0.003355  -0.009714   0.034016  -0.002591
     6  C   -0.158486   0.009215  -0.013132  -0.000925  -0.002591   1.209337
     7  H   -0.000433   0.000207  -0.002767  -0.000217   0.001928   0.000711
     8  H   -0.000123  -0.000006   0.000034   0.000071  -0.000030  -0.000115
     9  H    0.000118  -0.000024  -0.000049  -0.000599   0.000593  -0.000025
    10  H    0.000045   0.000052   0.000043   0.000615  -0.000749   0.000217
    11  H    0.000240  -0.000077  -0.002148   0.000080   0.001606  -0.000036
    12  H    0.005123  -0.000052   0.002568   0.000279  -0.001998  -0.020185
    13  H    0.001509   0.003947   0.002252   0.000465  -0.004141  -0.016951
               7          8          9         10         11         12
     1  O   -0.000433  -0.000123   0.000118   0.000045   0.000240   0.005123
     2  O    0.000207  -0.000006  -0.000024   0.000052  -0.000077  -0.000052
     3  C   -0.002767   0.000034  -0.000049   0.000043  -0.002148   0.002568
     4  C   -0.000217   0.000071  -0.000599   0.000615   0.000080   0.000279
     5  C    0.001928  -0.000030   0.000593  -0.000749   0.001606  -0.001998
     6  C    0.000711  -0.000115  -0.000025   0.000217  -0.000036  -0.020185
     7  H    0.001804   0.000014   0.000017   0.000001   0.000101  -0.000016
     8  H    0.000014  -0.000272   0.000027   0.000005  -0.000015   0.000000
     9  H    0.000017   0.000027  -0.000092   0.000002   0.000040  -0.000001
    10  H    0.000001   0.000005   0.000002  -0.000254  -0.000026   0.000019
    11  H    0.000101  -0.000015   0.000040  -0.000026   0.000648  -0.000002
    12  H   -0.000016   0.000000  -0.000001   0.000019  -0.000002  -0.011017
    13  H   -0.000036   0.000003  -0.000001   0.000028  -0.000006   0.006201
              13
     1  O    0.001509
     2  O    0.003947
     3  C    0.002252
     4  C    0.000465
     5  C   -0.004141
     6  C   -0.016951
     7  H   -0.000036
     8  H    0.000003
     9  H   -0.000001
    10  H    0.000028
    11  H   -0.000006
    12  H    0.006201
    13  H   -0.013304
 Mulliken charges and spin densities:
               1          2
     1  O   -0.117528  -0.018162
     2  O   -0.384666   0.024544
     3  C   -0.347402  -0.009022
     4  C   -0.355115   0.000135
     5  C    0.289636   0.033269
     6  C   -0.170035   1.007035
     7  H    0.175944   0.001314
     8  H    0.166830  -0.000407
     9  H    0.125614   0.000005
    10  H    0.138023  -0.000001
    11  H    0.143948   0.000405
    12  H    0.154276  -0.019082
    13  H    0.180477  -0.020033
 Sum of Mulliken charges =  -0.00000   1.00000
 Mulliken charges and spin densities with hydrogens summed into heavy atoms:
               1          2
     1  O   -0.117528  -0.018162
     2  O   -0.384666   0.024544
     3  C   -0.004628  -0.008115
     4  C    0.052469   0.000545
     5  C    0.289636   0.033269
     6  C    0.164717   0.967920
 APT charges:
               1
     1  O   -0.092263
     2  O   -0.303242
     3  C   -0.894655
     4  C   -1.163756
     5  C    0.335279
     6  C   -0.876003
     7  H    0.400293
     8  H    0.482691
     9  H    0.486498
    10  H    0.204811
    11  H    0.476750
    12  H    0.582838
    13  H    0.360759
 Sum of APT charges =  -0.00000
 APT charges with hydrogens summed into heavy atoms:
               1
     1  O   -0.092263
     2  O   -0.303242
     3  C   -0.011672
     4  C    0.004303
     5  C    0.335279
     6  C    0.067593
 Electronic spatial extent (au):  <R**2>=            640.1103
 Charge=             -0.0000 electrons
 Dipole moment (field-independent basis, Debye):
    X=             -1.4347    Y=             -1.8593    Z=              0.1236  Tot=              2.3517
 Quadrupole moment (field-independent basis, Debye-Ang):
   XX=            -32.1307   YY=            -41.0115   ZZ=            -36.5101
   XY=             -3.2133   XZ=             -2.0189   YZ=              1.4082
 Traceless Quadrupole moment (field-independent basis, Debye-Ang):
   XX=              4.4201   YY=             -4.4607   ZZ=              0.0407
   XY=             -3.2133   XZ=             -2.0189   YZ=              1.4082
 Octapole moment (field-independent basis, Debye-Ang**2):
  XXX=              5.1308  YYY=             -6.8473  ZZZ=              0.9785  XYY=             -0.6707
  XXY=             -3.5610  XXZ=             -4.0464  XZZ=             -1.3783  YZZ=              0.7617
  YYZ=              0.7115  XYZ=              1.6732
 Hexadecapole moment (field-independent basis, Debye-Ang**3):
 XXXX=           -560.8175 YYYY=           -211.5753 ZZZZ=            -76.2752 XXXY=            -11.9304
 XXXZ=            -15.4753 YYYX=            -12.4601 YYYZ=              1.9906 ZZZX=             -3.9417
 ZZZY=             -2.2887 XXYY=           -119.8659 XXZZ=           -109.9752 YYZZ=            -47.6992
 XXYZ=             -2.1711 YYXZ=             -2.5741 ZZXY=              1.9271
 N-N= 2.337323366145D+02 E-N=-1.185247412246D+03  KE= 3.053883304581D+02
  Exact polarizability:   0.000   0.000   0.000   0.000   0.000   0.000
 Approx polarizability:  67.560   0.389  70.939  -2.751  -4.096  55.674
                          Isotropic Fermi Contact Couplings
        Atom                 a.u.       MegaHertz       Gauss      10(-4) cm-1
     1  O(17)              0.01725     -10.45694      -3.73130      -3.48806
     2  O(17)              0.00225      -1.36628      -0.48752      -0.45574
     3  C(13)             -0.00215      -2.41768      -0.86269      -0.80645
     4  C(13)              0.00342       3.84829       1.37316       1.28365
     5  C(13)              0.00248       2.79137       0.99603       0.93110
     6  C(13)              0.33899     381.09328     135.98356     127.11904
     7  H(1)               0.00081       3.60430       1.28610       1.20227
     8  H(1)              -0.00019      -0.85736      -0.30593      -0.28599
     9  H(1)              -0.00001      -0.04330      -0.01545      -0.01444
    10  H(1)               0.00004       0.18082       0.06452       0.06032
    11  H(1)               0.00015       0.68594       0.24476       0.22881
    12  H(1)              -0.00510     -22.80942      -8.13897      -7.60840
    13  H(1)              -0.00503     -22.50405      -8.03001      -7.50654
 --------------------------------------------------------
       Center         ----  Spin Dipole Couplings  ----
                      3XX-RR        3YY-RR        3ZZ-RR
 --------------------------------------------------------
     1   Atom       -0.163129     -0.129570      0.292699
     2   Atom       -0.044001     -0.026195      0.070196
     3   Atom        0.003151     -0.002370     -0.000781
     4   Atom        0.006151     -0.003243     -0.002908
     5   Atom       -0.003572     -0.011114      0.014686
     6   Atom       -0.372768     -0.400137      0.772906
     7   Atom        0.004124     -0.002697     -0.001427
     8   Atom        0.002493     -0.000787     -0.001707
     9   Atom        0.002415     -0.001159     -0.001256
    10   Atom        0.004340     -0.002356     -0.001984
    11   Atom        0.002115     -0.001185     -0.000929
    12   Atom       -0.035277      0.049269     -0.013992
    13   Atom       -0.049316      0.026122      0.023194
 --------------------------------------------------------
                        XY            XZ            YZ
 --------------------------------------------------------
     1   Atom        0.039786      0.229537      0.152304
     2   Atom       -0.003285      0.014969      0.029820
     3   Atom       -0.002345     -0.000332      0.000524
     4   Atom        0.000591      0.001573      0.000232
     5   Atom       -0.007660      0.010477      0.008449
     6   Atom        0.128487      0.444904      0.380552
     7   Atom       -0.001007     -0.002705      0.000353
     8   Atom       -0.002114     -0.000358      0.000187
     9   Atom        0.000738     -0.000127     -0.000093
    10   Atom        0.001576      0.002217      0.001045
    11   Atom       -0.000342      0.000952     -0.000201
    12   Atom       -0.046143      0.008382      0.025424
    13   Atom        0.029782     -0.004149     -0.043136
 --------------------------------------------------------


 ---------------------------------------------------------------------------------
              Anisotropic Spin Dipole Couplings in Principal Axis System
 ---------------------------------------------------------------------------------

       Atom             a.u.   MegaHertz   Gauss  10(-4) cm-1        Axes

              Baa    -0.2636    19.074     6.806     6.362  0.8792  0.2196 -0.4229
     1 O(17)  Bbb    -0.1680    12.158     4.338     4.055 -0.3093  0.9381 -0.1560
              Bcc     0.4316   -31.231   -11.144   -10.418  0.3624  0.2680  0.8927
 
              Baa    -0.0491     3.551     1.267     1.185  0.8892  0.4050 -0.2128
     2 O(17)  Bbb    -0.0311     2.248     0.802     0.750 -0.4445  0.8750 -0.1920
              Bcc     0.0801    -5.800    -2.069    -1.935  0.1085  0.2653  0.9580
 
              Baa    -0.0033    -0.441    -0.157    -0.147  0.3313  0.9314 -0.1507
     3 C(13)  Bbb    -0.0008    -0.104    -0.037    -0.035  0.1471  0.1068  0.9833
              Bcc     0.0041     0.545     0.195     0.182  0.9320 -0.3480 -0.1016
 
              Baa    -0.0034    -0.452    -0.161    -0.151  0.0401  0.8307 -0.5552
     4 C(13)  Bbb    -0.0031    -0.414    -0.148    -0.138 -0.1741  0.5530  0.8148
              Bcc     0.0065     0.866     0.309     0.289  0.9839  0.0640  0.1668
 
              Baa    -0.0206    -2.762    -0.985    -0.921  0.5541  0.7571 -0.3460
     5 C(13)  Bbb     0.0004     0.052     0.018     0.017  0.7535 -0.6329 -0.1781
              Bcc     0.0202     2.710     0.967     0.904  0.3538  0.1620  0.9212
 
              Baa    -0.5255   -70.515   -25.161   -23.521  0.9261  0.1283 -0.3549
     6 C(13)  Bbb    -0.5121   -68.720   -24.521   -22.923 -0.2124  0.9545 -0.2092
              Bcc     1.0376   139.235    49.682    46.444  0.3120  0.2691  0.9112
 
              Baa    -0.0028    -1.518    -0.542    -0.506  0.1802  0.9785  0.0999
     7 H(1)   Bbb    -0.0025    -1.344    -0.480    -0.448  0.3516 -0.1589  0.9226
              Bcc     0.0054     2.863     1.021     0.955  0.9186 -0.1311 -0.3727
 
              Baa    -0.0018    -0.973    -0.347    -0.325  0.4286  0.8955 -0.1201
     8 H(1)   Bbb    -0.0017    -0.926    -0.331    -0.309  0.1212  0.0748  0.9898
              Bcc     0.0036     1.900     0.678     0.634  0.8953 -0.4388 -0.0764
 
              Baa    -0.0014    -0.722    -0.258    -0.241 -0.1369  0.7993  0.5851
     9 H(1)   Bbb    -0.0012    -0.647    -0.231    -0.216  0.1440 -0.5683  0.8101
              Bcc     0.0026     1.369     0.489     0.457  0.9801  0.1951 -0.0373
 
              Baa    -0.0032    -1.730    -0.617    -0.577  0.0520  0.7213 -0.6907
    10 H(1)   Bbb    -0.0022    -1.185    -0.423    -0.395 -0.3784  0.6543  0.6548
              Bcc     0.0055     2.915     1.040     0.972  0.9242  0.2273  0.3070
 
              Baa    -0.0013    -0.700    -0.250    -0.234 -0.1084  0.7449  0.6583
    11 H(1)   Bbb    -0.0011    -0.595    -0.212    -0.199 -0.2760 -0.6587  0.6999
              Bcc     0.0024     1.296     0.462     0.432  0.9550 -0.1059  0.2770
 
              Baa    -0.0626   -33.408   -11.921   -11.144  0.8286  0.4246 -0.3649
    12 H(1)   Bbb    -0.0116    -6.177    -2.204    -2.061  0.4257 -0.0546  0.9032
              Bcc     0.0742    39.586    14.125    13.204 -0.3636  0.9037  0.2260
 
              Baa    -0.0612   -32.672   -11.658   -10.898  0.9101 -0.3854 -0.1522
    13 H(1)   Bbb    -0.0116    -6.167    -2.200    -2.057  0.3627  0.5632  0.7424
              Bcc     0.0728    38.839    13.859    12.955  0.2004  0.7309 -0.6524
 

 ---------------------------------------------------------------------------------

 No NMR shielding tensors so no spin-rotation constants.
 Leave Link  601 at Tue Apr  9 02:13:17 2019, MaxMem=   671088640 cpu:               8.1 elap:               0.4
 (Enter /shared/centos7/gaussian/g16/l701.exe)
 SCFChk:  SCF convergence  9.32D-09 required  1.00D-08
 ... and contract with generalized density number  0.
 Compute integral second derivatives.
 Entering OneElI...
 Calculate overlap and kinetic energy integrals
    NBasis = 297  MinDer = 2  MaxDer = 2
 Requested accuracy = 0.1000D-12
 PrmmSu-InSpLW:  IPartL=    0 NPrtUS=   20 NPrtUL=    1 DoSpLW=F IThBeg=    0 IThEnd=   19 NThAct=   20.
 PrsmSu:  NPrtUS=  20 ThrOK=T IAlg=1 NPAlg=1 LenDen=           0 ISkipM=0 DoSpLW=F IThBeg=    0 IThEnd=   19.
 Prism:   IPart=     0 DynPar=F LinDyn=F Incr=           1.
 PRISM was handed    33455094 working-precision words and  3477 shell-pairs
 PRISM was handed    33455094 working-precision words and  3477 shell-pairs
 PRISM was handed    33455094 working-precision words and  3477 shell-pairs
 PRISM was handed    33455094 working-precision words and  3477 shell-pairs
 PRISM was handed    33455094 working-precision words and  3477 shell-pairs
 PRISM was handed    33455094 working-precision words and  3477 shell-pairs
 PRISM was handed    33455094 working-precision words and  3477 shell-pairs
 PRISM was handed    33455094 working-precision words and  3477 shell-pairs
 PRISM was handed    33455094 working-precision words and  3477 shell-pairs
 PRISM was handed    33455094 working-precision words and  3477 shell-pairs
 PRISM was handed    33455094 working-precision words and  3477 shell-pairs
 PRISM was handed    33455094 working-precision words and  3477 shell-pairs
 PRISM was handed    33455094 working-precision words and  3477 shell-pairs
 PRISM was handed    33455094 working-precision words and  3477 shell-pairs
 PRISM was handed    33455094 working-precision words and  3477 shell-pairs
 PRISM was handed    33455094 working-precision words and  3477 shell-pairs
 PRISM was handed    33455094 working-precision words and  3477 shell-pairs
 PRISM was handed    33455094 working-precision words and  3477 shell-pairs
 PRISM was handed    33455094 working-precision words and  3477 shell-pairs
 PRISM was handed    33455094 working-precision words and  3477 shell-pairs
 IPart= 19 NShTot=         150 NBatch=          30 AvBLen=         5.0
 IPart= 18 NShTot=         152 NBatch=          30 AvBLen=         5.1
 IPart= 17 NShTot=         155 NBatch=          30 AvBLen=         5.2
 IPart=  0 NShTot=         206 NBatch=          57 AvBLen=         3.6
 IPart=  5 NShTot=         184 NBatch=          42 AvBLen=         4.4
 IPart= 16 NShTot=         158 NBatch=          30 AvBLen=         5.3
 IPart=  8 NShTot=         177 NBatch=          37 AvBLen=         4.8
 IPart=  4 NShTot=         188 NBatch=          45 AvBLen=         4.2
 IPart=  7 NShTot=         180 NBatch=          38 AvBLen=         4.7
 IPart= 10 NShTot=         170 NBatch=          32 AvBLen=         5.3
 IPart=  6 NShTot=         181 NBatch=          39 AvBLen=         4.6
 IPart= 12 NShTot=         165 NBatch=          31 AvBLen=         5.3
 IPart=  2 NShTot=         194 NBatch=          50 AvBLen=         3.9
 IPart=  9 NShTot=         174 NBatch=          34 AvBLen=         5.1
 IPart= 14 NShTot=         161 NBatch=          30 AvBLen=         5.4
 IPart=  1 NShTot=         198 NBatch=          53 AvBLen=         3.7
 IPart= 11 NShTot=         166 NBatch=          31 AvBLen=         5.4
 IPart=  3 NShTot=         193 NBatch=          49 AvBLen=         3.9
 IPart= 15 NShTot=         161 NBatch=          30 AvBLen=         5.4
 IPart= 13 NShTot=         164 NBatch=          31 AvBLen=         5.3
 PrSmSu:  NxtVal=             21.
 Entering OneElI...
 Calculate potential energy integrals
    NBasis = 297  MinDer = 2  MaxDer = 2
 Requested accuracy = 0.1000D-12
 PrmmSu-InSpLW:  IPartL=    0 NPrtUS=   20 NPrtUL=    1 DoSpLW=F IThBeg=    0 IThEnd=   19 NThAct=   20.
 PrsmSu:  NPrtUS=  20 ThrOK=T IAlg=1 NPAlg=1 LenDen=           0 ISkipM=0 DoSpLW=F IThBeg=    0 IThEnd=   19.
 Prism:   IPart=     0 DynPar=F LinDyn=F Incr=          21.
 PRISM was handed    33469402 working-precision words and  3241 shell-pairs
 PRISM was handed    33469402 working-precision words and  3241 shell-pairs
 PRISM was handed    33469402 working-precision words and  3241 shell-pairs
 PRISM was handed    33469402 working-precision words and  3241 shell-pairs
 PRISM was handed    33469402 working-precision words and  3241 shell-pairs
 PRISM was handed    33469402 working-precision words and  3241 shell-pairs
 PRISM was handed    33469402 working-precision words and  3241 shell-pairs
 PRISM was handed    33469402 working-precision words and  3241 shell-pairs
 PRISM was handed    33469402 working-precision words and  3241 shell-pairs
 PRISM was handed    33469402 working-precision words and  3241 shell-pairs
 PRISM was handed    33469402 working-precision words and  3241 shell-pairs
 PRISM was handed    33469402 working-precision words and  3241 shell-pairs
 PRISM was handed    33469402 working-precision words and  3241 shell-pairs
 PRISM was handed    33469402 working-precision words and  3241 shell-pairs
 PRISM was handed    33469402 working-precision words and  3241 shell-pairs
 PRISM was handed    33469402 working-precision words and  3241 shell-pairs
 PRISM was handed    33469402 working-precision words and  3241 shell-pairs
 PRISM was handed    33469402 working-precision words and  3241 shell-pairs
 PRISM was handed    33469402 working-precision words and  3241 shell-pairs
 PRISM was handed    33469402 working-precision words and  3241 shell-pairs
 IPart= 19 NShTot=        1846 NBatch=         142 AvBLen=        13.0
 IPart= 17 NShTot=        1872 NBatch=         144 AvBLen=        13.0
 IPart= 18 NShTot=        1872 NBatch=         144 AvBLen=        13.0
 IPart=  0 NShTot=        2600 NBatch=         200 AvBLen=        13.0
 IPart=  4 NShTot=        2275 NBatch=         175 AvBLen=        13.0
 IPart=  7 NShTot=        2145 NBatch=         165 AvBLen=        13.0
 IPart=  5 NShTot=        2210 NBatch=         170 AvBLen=        13.0
 IPart=  2 NShTot=        2379 NBatch=         183 AvBLen=        13.0
 IPart=  3 NShTot=        2301 NBatch=         177 AvBLen=        13.0
 IPart=  8 NShTot=        2145 NBatch=         165 AvBLen=        13.0
 IPart=  1 NShTot=        2470 NBatch=         190 AvBLen=        13.0
 IPart= 10 NShTot=        2041 NBatch=         157 AvBLen=        13.0
 IPart= 13 NShTot=        1963 NBatch=         151 AvBLen=        13.0
 IPart= 12 NShTot=        1976 NBatch=         152 AvBLen=        13.0
 IPart=  6 NShTot=        2171 NBatch=         167 AvBLen=        13.0
 IPart=  9 NShTot=        2106 NBatch=         162 AvBLen=        13.0
 IPart= 15 NShTot=        1911 NBatch=         147 AvBLen=        13.0
 IPart= 11 NShTot=        2015 NBatch=         155 AvBLen=        13.0
 IPart= 16 NShTot=        1885 NBatch=         145 AvBLen=        13.0
 IPart= 14 NShTot=        1950 NBatch=         150 AvBLen=        13.0
 PrSmSu:  NxtVal=            421.
 Polarizability after L701:
                1             2             3 
      1  0.000000D+00
      2  0.000000D+00  0.000000D+00
      3  0.000000D+00  0.000000D+00  0.000000D+00
 Dipole Derivatives after L701:
                 1             2             3             4             5 
      1   0.132230D+00  0.190846D-02 -0.506988D-01 -0.301034D+00  0.729292D-01
      2   0.369837D-02 -0.164531D+00 -0.526905D-01  0.200966D+00 -0.666019D-01
      3  -0.647775D-01 -0.604036D-01 -0.244487D+00 -0.518071D-01 -0.672942D-01
                 6             7             8             9            10 
      1  -0.941412D-01 -0.100861D+01  0.810120D+00  0.104044D+01 -0.160860D+01
      2  -0.185568D+00  0.306272D+00 -0.593599D+00  0.111318D+00  0.183334D-02
      3  -0.542089D+00  0.182266D+00  0.391771D-01 -0.108176D+01  0.606882D-01
                11            12            13            14            15 
      1  -0.775374D+00 -0.946935D+00  0.604936D+00 -0.216172D+00  0.100149D+00
      2  -0.992748D+00 -0.138540D+00 -0.272463D+00 -0.263489D+00  0.283866D+00
      3   0.160680D-01 -0.889921D+00 -0.823715D-02  0.219107D+00  0.664391D+00
                16            17            18            19            20 
      1  -0.140508D+01  0.380217D+00  0.105142D+01  0.257602D+00  0.219643D+00
      2   0.396603D+00 -0.932600D+00 -0.105874D+00  0.224440D-01  0.187186D+00
      3   0.188424D+00  0.145047D+00 -0.290333D+00 -0.706431D-01 -0.230986D+00
                21            22            23            24            25 
      1  -0.535660D+00  0.600487D+00 -0.728233D+00  0.216606D-01  0.802917D+00
      2  -0.271086D-01 -0.315364D+00  0.683042D+00 -0.158872D-01  0.332539D+00
      3   0.756090D+00 -0.910872D-01  0.174156D+00  0.164542D+00 -0.592835D-01
                26            27            28            29            30 
      1   0.728044D+00 -0.652730D+00 -0.180564D+00  0.334154D+00  0.345680D+00
      2   0.438883D+00 -0.314642D+00 -0.339075D+00  0.444184D+00  0.322571D+00
      3  -0.662492D-01  0.217693D+00 -0.256044D+00  0.248959D+00  0.350814D+00
                31            32            33            34            35 
      1   0.838539D+00 -0.603848D+00  0.772024D+00  0.759218D+00 -0.112863D+01
      2   0.123752D-01  0.157823D+00  0.222793D-01 -0.348279D+00  0.858796D+00
      3   0.304428D+00 -0.243713D+00  0.433888D+00 -0.477082D-01  0.720791D-01
                36            37            38            39 
      1  -0.276392D+00  0.507951D+00  0.905244D+00 -0.774818D+00
      2   0.150342D+00 -0.155092D-02  0.243653D+00 -0.500654D-01
      3   0.130501D+00 -0.862194D-01 -0.245948D+00  0.330671D+00
 Hessian after L701:
                1             2             3             4             5 
      1  0.342839D+01
      2  0.479368D+01  0.730771D+01
      3  0.773908D+00  0.833319D+00  0.157426D+02
      4 -0.163775D+00 -0.376967D+00  0.133261D+00  0.102837D+02
      5 -0.449379D+00  0.669102D+00  0.492474D-01 -0.595295D+01  0.154604D+01
      6  0.135169D+00  0.144798D-01 -0.336098D-01  0.259139D+01  0.465470D+01
      7  0.525981D+00 -0.211405D+00  0.793846D-01  0.867670D+00  0.430750D+00
      8 -0.124288D+00  0.424611D-01 -0.805734D-02  0.403576D+00 -0.159983D+00
      9  0.130784D+00 -0.521621D-01 -0.296596D-01 -0.330596D+00 -0.658861D-01
     10  0.435254D+00 -0.145249D-01  0.101220D+00  0.180625D+00  0.256540D+00
     11 -0.115500D+00 -0.234173D+00 -0.135135D-01  0.226442D+00  0.474813D-02
     12  0.181255D-01  0.282226D-01 -0.233947D+00  0.268270D-01  0.179969D-01
     13 -0.541905D+01 -0.457099D+01  0.159816D+00 -0.113237D+02  0.611288D+01
     14 -0.454617D+01 -0.136950D+01 -0.794298D+00  0.613956D+01 -0.248066D+01
     15  0.167818D+00 -0.763441D+00 -0.910315D+01 -0.239384D+01 -0.452092D+01
     16  0.111135D+01  0.485122D+00 -0.121994D+01 -0.566028D-01 -0.403516D+00
     17  0.466373D+00 -0.667356D+01 -0.275300D-01 -0.457492D+00  0.404970D+00
     18 -0.115835D+01 -0.318962D-01 -0.651485D+01  0.902531D-01 -0.140949D+00
     19  0.871543D-02 -0.341541D-03 -0.560626D-01 -0.490792D-02  0.438253D-01
     20  0.148267D-01 -0.378738D-01  0.834801D-03  0.444070D-01  0.421362D-02
     21 -0.978529D-01  0.266944D-01  0.473494D-01 -0.902979D-01 -0.906101D-01
     22  0.795663D-01 -0.117426D+00 -0.729282D-02  0.981296D-01  0.387965D-01
     23 -0.130059D+00  0.627369D-01  0.787077D-02 -0.623271D-01 -0.574829D-01
     24 -0.130509D-01  0.110745D-01 -0.454904D-01 -0.193646D-01 -0.854229D-02
     25  0.435098D-01  0.102032D-01 -0.615656D-03  0.184339D-01  0.258687D-01
     26  0.266455D-01 -0.132225D-01 -0.261315D-03  0.257844D-01  0.127148D-01
     27 -0.210219D-01 -0.246034D-02 -0.143937D-01 -0.164621D-01 -0.147209D-01
     28  0.227266D-01  0.327351D-01  0.472568D-01 -0.181468D-01  0.209867D-01
     29  0.820610D-01 -0.453006D-01  0.431297D-01  0.637977D-01  0.668567D-01
     30  0.113015D+00  0.311213D-01 -0.757269D-02  0.303482D-01  0.452949D-01
     31  0.573936D-01 -0.203818D-01  0.287247D-01  0.592356D-01  0.471302D-01
     32 -0.267788D-01 -0.116640D-01 -0.986222D-02  0.619032D-02 -0.168901D-01
     33  0.419176D-01 -0.101790D-01 -0.528873D-02  0.352002D-01  0.222323D-01
     34 -0.932720D-01 -0.396985D-02  0.911669D-02  0.102737D-01 -0.826311D-01
[...]
 ! R6    R(3,7)                  1.0903         -DE/DX =    0.0                 !
 ! R7    R(3,8)                  1.0868         -DE/DX =    0.0                 !
 ! R8    R(4,9)                  1.0881         -DE/DX =    0.0                 !
 ! R9    R(4,10)                 1.0881         -DE/DX =    0.0                 !
 ! R10   R(4,11)                 1.0892         -DE/DX =    0.0                 !
 ! R11   R(6,12)                 1.074          -DE/DX =    0.0                 !
 ! R12   R(6,13)                 1.0753         -DE/DX =    0.0                 !
 ! A1    A(5,1,6)              118.2107         -DE/DX =    0.0                 !
 ! A2    A(4,3,5)              111.2942         -DE/DX =    0.0                 !
 ! A3    A(4,3,7)              109.9327         -DE/DX =    0.0                 !
 ! A4    A(4,3,8)              111.1456         -DE/DX =    0.0                 !
 ! A5    A(5,3,7)              108.3911         -DE/DX =    0.0                 !
 ! A6    A(5,3,8)              107.1446         -DE/DX =    0.0                 !
 ! A7    A(7,3,8)              108.832          -DE/DX =    0.0                 !
 ! A8    A(3,4,9)              110.1777         -DE/DX =    0.0                 !
 ! A9    A(3,4,10)             110.7872         -DE/DX =    0.0                 !
 ! A10   A(3,4,11)             110.7392         -DE/DX =    0.0                 !
 ! A11   A(9,4,10)             108.4105         -DE/DX =    0.0                 !
 ! A12   A(9,4,11)             108.1758         -DE/DX =    0.0                 !
 ! A13   A(10,4,11)            108.4692         -DE/DX =    0.0                 !
 ! A14   A(1,5,2)              122.7103         -DE/DX =    0.0                 !
 ! A15   A(1,5,3)              110.7138         -DE/DX =    0.0                 !
 ! A16   A(2,5,3)              126.5651         -DE/DX =    0.0                 !
 ! A17   A(1,6,12)             113.9467         -DE/DX =    0.0                 !
 ! A18   A(1,6,13)             118.5166         -DE/DX =    0.0                 !
 ! A19   A(12,6,13)            125.7765         -DE/DX =    0.0                 !
 ! D1    D(6,1,5,2)              0.4525         -DE/DX =    0.0                 !
 ! D2    D(6,1,5,3)            179.3294         -DE/DX =    0.0                 !
 ! D3    D(5,1,6,12)          -174.1186         -DE/DX =    0.0                 !
 ! D4    D(5,1,6,13)            -8.3502         -DE/DX =    0.0                 !
 ! D5    D(5,3,4,9)           -179.0346         -DE/DX =    0.0                 !
 ! D6    D(5,3,4,10)            61.0049         -DE/DX =    0.0                 !
 ! D7    D(5,3,4,11)           -59.3976         -DE/DX =    0.0                 !
 ! D8    D(7,3,4,9)             60.8631         -DE/DX =    0.0                 !
 ! D9    D(7,3,4,10)           -59.0973         -DE/DX =    0.0                 !
 ! D10   D(7,3,4,11)          -179.4998         -DE/DX =    0.0                 !
 ! D11   D(8,3,4,9)            -59.6953         -DE/DX =    0.0                 !
 ! D12   D(8,3,4,10)          -179.6558         -DE/DX =    0.0                 !
 ! D13   D(8,3,4,11)            59.9417         -DE/DX =    0.0                 !
 ! D14   D(4,3,5,1)            -68.417          -DE/DX =    0.0                 !
 ! D15   D(4,3,5,2)            110.4064         -DE/DX =    0.0                 !
 ! D16   D(7,3,5,1)             52.5927         -DE/DX =    0.0                 !
 ! D17   D(7,3,5,2)           -128.5839         -DE/DX =    0.0                 !
 ! D18   D(8,3,5,1)            169.8867         -DE/DX =    0.0                 !
 ! D19   D(8,3,5,2)            -11.2899         -DE/DX =    0.0                 !
 ! D20   D(1,6,12,13)          164.5582         -DE/DX =    0.0                 !
 --------------------------------------------------------------------------------
 GradGradGradGradGradGradGradGradGradGradGradGradGradGradGradGradGradGrad

 Leave Link  103 at Tue Apr  9 02:41:34 2019, MaxMem=   671088640 cpu:               0.3 elap:               0.0
 (Enter /shared/centos7/gaussian/g16/l9999.exe)

 ----------------------------------------------------------------------

 Electric dipole moment (input orientation):
 (Debye = 10**-18 statcoulomb cm , SI units = C m)
                  (au)            (Debye)         (10**-30 SI)
   Tot        0.843413D+00      0.214374D+01      0.715075D+01
   x          0.218635D-01      0.555714D-01      0.185366D+00
   y          0.229041D+00      0.582164D+00      0.194189D+01
   z          0.811423D+00      0.206243D+01      0.687953D+01

 Dipole polarizability, Alpha (input orientation).
 (esu units = cm**3 , SI units = C**2 m**2 J**-1)
 Alpha(0;0):
               (au)            (10**-24 esu)      (10**-40 SI)
   iso        0.558243D+02      0.827230D+01      0.920418D+01
   aniso      0.190449D+02      0.282217D+01      0.314008D+01
   xx         0.605505D+02      0.897266D+01      0.998343D+01
   yx         0.748162D+01      0.110866D+01      0.123355D+01
   yy         0.494635D+02      0.732973D+01      0.815542D+01
   zx        -0.554726D+01     -0.822020D+00     -0.914620D+00
   zy        -0.119239D+01     -0.176694D+00     -0.196598D+00
   zz         0.574588D+02      0.851451D+01      0.947367D+01

 ----------------------------------------------------------------------

 Dipole orientation:
     8          2.95317298         -0.57726569          1.73908575
     8          0.92629372         -2.23871030         -1.60093719
     6         -1.03781896         -2.40315825          2.51147920
     6         -0.13463942         -4.45107529          4.34436836
     6          0.96838791         -1.76629694          0.60773858
     6          4.95122198          0.10764618          0.27785088
     1         -1.51405638         -0.68969359          3.55194226
     1         -2.69161175         -3.02373877          1.46364024
     1         -1.62369820         -4.90841811          5.68657869
     1          1.51394497         -3.81417887          5.39545567
     1          0.36403579         -6.17015913          3.32826983
     1          6.51752390          0.86173733          1.32515912
     1          5.00998228         -0.53602153         -1.64866423

 Electric dipole moment (dipole orientation):
 (Debye = 10**-18 statcoulomb cm , SI units = C m)
                  (au)            (Debye)         (10**-30 SI)
   Tot        0.843413D+00      0.214374D+01      0.715075D+01
   x          0.000000D+00      0.000000D+00      0.000000D+00
   y          0.000000D+00      0.000000D+00      0.000000D+00
   z          0.843413D+00      0.214374D+01      0.715075D+01

 Dipole polarizability, Alpha (dipole orientation).
 (esu units = cm**3 , SI units = C**2 m**2 J**-1)
 Alpha(0;0):
               (au)            (10**-24 esu)      (10**-40 SI)
   iso        0.558243D+02      0.827230D+01      0.920418D+01
   aniso      0.190449D+02      0.282217D+01      0.314008D+01
   xx         0.607819D+02      0.900695D+01      0.100216D+02
   yx         0.874855D+01      0.129640D+01      0.144244D+01
   yy         0.506140D+02      0.750023D+01      0.834513D+01
   zx        -0.320054D+01     -0.474271D+00     -0.527697D+00
   zy        -0.286847D+01     -0.425063D+00     -0.472947D+00
   zz         0.560768D+02      0.830973D+01      0.924582D+01

 ----------------------------------------------------------------------

 Test job not archived.
 1\1\GINC-C0210\Freq\UM062X\6-311+G(2df,2p)\C4H7O2(2)\UNDERKOFFLER.C\09
 -Apr-2019\0\\#P Geom=AllCheck Guess=TCheck SCRF=Check Test GenChk UM06
 2X/6-311+G(2df,2p) Freq\\Gaussian input prepared by ASE\\0,2\O,1.58716
 88022,-0.0496843144,0.9278249387\O,0.4722950106,-1.3719693841,-0.50603
 77314\C,-0.5099877666,-0.8610134012,1.6381935408\C,-0.0031782751,-1.64
 23095148,2.8532366072\C,0.5239635841,-0.8140556407,0.5499465247\C,2.62
 2783583,0.0853511261,0.0580670472\H,-0.7508959564,0.1620571762,1.92819
 76245\H,-1.3980331435,-1.3245077992,1.2165995507\H,-0.7716040778,-1.67
 95178243,3.6227132371\H,0.8821254605,-1.1700289383,3.2742111097\H,0.24
 99443104,-2.6647831453,2.5761363665\H,3.464285873,0.616930639,0.461404
 7616\H,2.6286623631,-0.5194236464,-0.8310407462\\Version=EM64L-G16RevA
 .03\State=2-A\HF=-307.0074267\S2=0.75487\S2-1=0.\S2A=0.750018\RMSD=6.6
 24e-09\RMSF=3.454e-07\ZeroPoint=0.1048088\Thermal=0.1122499\Dipole=0.0
 218635,0.2290411,0.8114231\DipoleDeriv=-1.3775237,-0.6359032,0.2859561
 ,-0.6364128,-0.5349744,-0.0866773,0.1499567,-0.1485446,-0.6022839,-0.5
 804207,-0.1031818,0.1459562,-0.2821355,-0.5934351,-0.2447617,-0.300203
 2,-0.4143033,-0.9686461,-0.0060914,-0.0012062,0.0843208,-0.0056348,0.0
 742202,0.0243377,0.1459336,0.0280943,-0.1623465,-0.0143803,-0.019468,0
 .0713062,0.021129,0.0833568,-0.0327014,-0.0187481,-0.0129314,0.0899883
 ,1.4536107,0.6387001,-0.3349722,0.8227037,0.8628234,0.3162394,0.284199
 6,0.562278,1.2186686,0.4632794,0.2761564,-0.2848842,0.1750659,-0.12462
 83,0.1390928,-0.3396794,0.0951062,0.2550949,0.0421408,0.0080427,0.0276
 612,0.0345369,-0.0673994,0.0015511,0.0230377,-0.0059791,0.0417861,-0.0
 331368,-0.0298557,-0.02329,-0.0534382,0.0453038,-0.0064695,-0.0467536,
 -0.0037166,0.0042745,-0.0198209,-0.0020321,0.0930636,-0.0024109,0.0611
 997,0.0339844,0.0937578,0.0377234,-0.0681831,-0.0343128,-0.0354016,-0.
 0810251,-0.0570679,0.0240823,-0.0236527,-0.0506508,0.0028796,0.0362585
 ,0.0615407,0.0465802,-0.013321,0.0405266,-0.0859223,0.0001503,0.003773
 9,-0.0516523,0.0230367,0.0073786,-0.0648286,0.0296178,-0.0434177,0.138
 7986,-0.0421858,-0.0113568,-0.0631423,0.0509998,0.0377362,-0.0776023,-
 0.0003895,-0.0134442,0.1165747,-0.0789072,0.0667326,-0.0258121,0.08135
 24\Polar=60.5505159,7.4816152,49.4634686,-5.547264,-1.1923869,57.45878
 71\Quadrupole=2.859184,-0.7736015,-2.0855824,0.3685791,-2.2149674,-1.4
 292946\PG=C01 [X(C4H7O2)]\NImag=0\\0.46593623,0.17344992,0.17650822,-0
 .11329654,0.08567109,0.32788601,-0.01020051,-0.04247758,-0.04430090,0.
 10083109,-0.04535280,-0.02439795,-0.05386840,0.04954550,0.23427035,-0.
 05097219,-0.05716898,-0.03227290,0.02311969,0.35481706,0.71363686,-0.0
 3580210,-0.01290133,0.02539452,0.01213650,-0.00440774,0.00505556,0.566
 03002,-0.02705911,0.00161102,0.01189135,0.00612126,0.01683386,-0.02768
 405,0.04125564,0.56540035,-0.00385390,-0.00253426,0.01017393,0.0254699
 5,-0.01483015,-0.03432941,0.02366488,0.06696853,0.48233872,-0.00358982
 ,-0.00042612,-0.00090090,-0.00410600,0.00435153,0.00298031,-0.09259622
 ,0.01594205,-0.02800860,0.57172245,0.00098452,0.00119565,-0.00022368,0
 .00254978,-0.00190134,-0.00285080,0.01991147,-0.10606542,0.04509545,0.
 02163181,0.55074133,-0.00200549,-0.00120253,-0.00053760,0.00211699,-0.
 00157750,0.00155400,-0.03493032,0.04930376,-0.14469745,-0.03198474,0.0
 4625548,0.51155386,-0.17507245,-0.06143915,-0.00696149,-0.10595008,-0.
 00755386,0.01550108,-0.15104299,0.00290854,0.06330996,0.01750730,-0.00
 529489,-0.00155820,0.49981466,-0.06194470,-0.11249343,-0.02468877,-0.0
 1547127,-0.22403493,-0.27393466,-0.00173881,-0.08545550,0.00806542,-0.
 01486204,-0.00145171,0.01546314,0.09643361,0.42870428,-0.00422399,-0.0
 2351499,-0.10922636,-0.00024107,-0.28314396,-0.64281395,0.06300412,0.0
 0567462,-0.13564413,0.01518414,0.00582701,-0.03050684,-0.09679865,0.28
 064730,0.90828792,-0.20594649,-0.05402093,0.11482427,0.00497855,0.0080
 0418,0.00684670,0.00090411,-0.00196857,-0.00239477,-0.00044181,-0.0002
 5896,0.00012338,-0.06291720,-0.02536419,0.02207162,0.53999336,-0.03695
 951,-0.04787696,-0.03156078,0.00229536,-0.00150576,0.00041071,-0.00251
 302,0.00023290,-0.00234209,0.00014573,-0.00000182,-0.00041387,-0.02717
 493,-0.00113540,0.02117914,0.22477289,0.27339901,0.13148655,-0.0130374
 2,-0.18519644,-0.00643396,-0.00410986,-0.00463508,-0.00381755,-0.00311
 492,-0.00016842,0.00014901,0.00032175,0.00022200,0.01529963,0.01431333
 ,0.01566101,-0.05330636,0.25961958,0.52245328,0.00054623,-0.00209920,-
 0.00056577,-0.00111525,-0.00185660,0.00414834,-0.06462819,0.05151293,0
 .01745816,-0.00276897,0.01093282,0.00148594,-0.00386376,0.02580550,0.0
 0398582,-0.00047047,-0.00043596,0.00059607,0.06321684,-0.00094170,0.00
 038499,0.00077887,0.00097961,0.00024204,0.00150254,0.05294780,-0.28112
 236,-0.07173982,0.00430594,-0.01606016,-0.00306956,-0.00135410,0.00051
 276,-0.00205607,0.00044534,0.00027350,-0.00015482,-0.05977404,0.305415
 41,-0.00147047,0.00148425,0.00083228,0.00325231,0.00291981,-0.00526122
 ,0.01902564,-0.07290782,-0.06332513,-0.00756089,0.02862646,0.00686227,
 0.00330534,-0.02684548,-0.00788264,0.00030894,0.00044809,-0.00050792,-
 0.01909415,0.07473590,0.07475102,-0.00455648,-0.00067612,0.00448640,0.
 00342933,0.00106453,-0.00044776,-0.23233873,-0.09561313,-0.08150172,-0
 .00679949,-0.00294186,-0.00386723,-0.02009359,-0.01191315,-0.01285166,
 0.00004226,-0.00058773,-0.00082825,0.00829185,0.00305350,0.00355759,0.
 25121309,-0.00154435,0.00094381,0.00075834,0.00104261,0.00003472,0.000
 32098,-0.09879751,-0.10261412,-0.04695974,0.01634764,0.00847299,0.0076
 2923,-0.00001345,-0.00287263,-0.00121654,0.00029249,0.00044377,-0.0003
 9303,-0.02463061,-0.01104522,-0.00971485,0.10638701,0.10680314,0.00577
 128,0.00085810,-0.00386955,-0.00120746,0.00043819,0.00068836,-0.088659
 89,-0.04981997,-0.08826676,-0.02203909,-0.01117172,-0.01103216,0.02028
 037,0.01131777,0.00958860,0.00054471,0.00058224,0.00066664,-0.00676345
 ,-0.00286210,-0.00359142,0.09179682,0.04765368,0.09792525,0.00096333,-
 0.00000981,0.00071917,0.00088339,-0.00070863,-0.00055698,0.00952111,0.
 00152973,-0.01136045,-0.18722196,-0.00613903,0.13845766,-0.00264628,0.
 00149470,-0.00216783,0.00032740,0.00004447,-0.00005575,0.00037257,-0.0
 0058239,0.00076958,0.00057414,-0.00055242,0.00054735,0.19993127,-0.000
 80956,-0.00010279,0.00031587,-0.00094440,0.00106998,0.00122600,-0.0129
 7204,-0.00204707,0.01341030,-0.00521134,-0.04736700,0.00374896,0.00302
 577,-0.00217334,0.00139702,0.00018413,0.00002778,-0.00014729,-0.000730
 66,0.00044126,-0.00065477,0.00015381,0.00057038,-0.00070409,0.00467894
 ,0.04808921,0.00104210,0.00015119,0.00057211,0.00137647,-0.00095863,-0
 .00102932,0.01814621,0.00228865,-0.02027456,0.13721150,0.00427756,-0.1
 8037486,-0.00585241,0.00275644,-0.00178824,0.00024980,0.00000879,-0.00
 006965,0.00012664,-0.00022326,0.00132752,0.00006653,-0.00084161,0.0006
 2569,-0.14848314,-0.00805806,0.19665257,0.00036235,-0.00014413,0.00104
 661,0.00037291,0.00000953,-0.00005009,-0.00854049,-0.00374104,-0.00444
 286,-0.22859388,-0.09805184,-0.08453549,-0.00103064,-0.00026717,0.0003
 0377,0.00025391,0.00012194,-0.00000128,0.00005803,0.00004709,0.0001874
 4,0.00071865,0.00152902,-0.00116402,-0.01754641,-0.00982449,-0.0092147
 7,0.24594648,0.00024407,-0.00033206,0.00040861,-0.00012482,0.00001985,
 -0.00000536,0.01627094,0.00807934,0.00753822,-0.09947282,-0.10257925,-
 0.04791094,-0.00012534,0.00066599,-0.00057211,-0.00011145,-0.00013774,
 -0.00001944,0.00013064,0.00090640,-0.00086338,0.00109191,-0.00142812,0
 .00365498,0.00076534,-0.00096145,0.00039659,0.10682775,0.10778032,0.00
 086772,0.00041886,0.00072680,0.00090354,0.00051596,0.00009134,-0.02180
 221,-0.01120111,-0.01231134,-0.08252120,-0.04640814,-0.08597785,-0.003
 52614,-0.00248382,-0.00005018,0.00077824,0.00022398,-0.00028641,0.0006
 4047,-0.00021483,0.00124937,-0.00105464,0.00350407,-0.00363954,0.01865
 376,0.01112052,0.01031016,0.09394119,0.04790658,0.09392531,-0.00007313
 ,0.00015902,-0.00004448,-0.00007092,-0.00011624,-0.00045372,-0.0029793
 8,0.01029648,0.00253625,-0.06302924,0.05663294,0.01675219,0.00016326,-
 0.00060975,0.00080838,-0.00000496,0.00006889,0.00003256,0.00022636,0.0
 0093969,-0.00214608,-0.00009967,0.00007348,0.00055721,-0.00513555,0.02
 249348,0.00527008,0.00801986,-0.02550286,-0.00677065,0.06297276,-0.000
 70199,-0.00009968,0.00041777,-0.00043707,0.00050488,0.00104605,0.00306
 055,-0.01479947,-0.00234922,0.05718071,-0.28501274,-0.06817528,0.00124
 036,-0.00076296,-0.00184230,0.00010162,-0.00001562,-0.00005433,0.00096
 053,0.00000426,0.00290312,0.00002849,0.00070100,-0.00000740,-0.0005482
 2,0.00246233,0.00023304,0.00353895,-0.01205206,-0.00341420,-0.06439711
 ,0.30913087,0.00018874,-0.00032676,-0.00012175,-0.00018293,-0.00088392
 ,-0.00022024,-0.00614190,0.02773073,0.00576237,0.01741640,-0.06966092,
 -0.06717321,-0.00056369,0.00170593,0.00285884,-0.00003936,0.00006635,0
 .00003568,-0.00187120,0.00324948,-0.00459327,0.00029720,-0.00086867,0.
 00120038,0.00350470,-0.02171198,-0.00592540,0.00393094,-0.01048135,-0.
 00405375,-0.01655916,0.07117129,0.07226452,-0.02629187,-0.01285022,-0.
 00620900,0.00084830,-0.00056612,-0.00190132,-0.00060571,-0.00085851,-0
 .00052631,-0.00013584,0.00005542,-0.00002278,0.00164804,0.00358702,0.0
 0576844,-0.22957298,-0.13686095,-0.08492556,0.00001516,-0.00000011,-0.
 00001641,-0.00022442,-0.00003719,0.00027598,0.00001908,-0.00003703,0.0
 0006879,0.00001588,-0.00001948,0.00001159,0.00001577,-0.00000963,0.000
 00695,0.24881084,0.00054964,-0.00184008,0.00225562,-0.00073399,0.00041
 123,0.00150067,-0.00022075,0.00017231,-0.00021493,0.00006901,0.0000152
 4,-0.00002073,-0.00057598,0.00071948,-0.00223760,-0.13404387,-0.096798
 17,-0.07915864,0.00005059,0.00001197,-0.00001798,-0.00001687,0.0000030
 6,0.00006334,0.00001659,-0.00000396,-0.00002877,-0.00003842,0.00001920
 ,0.00002397,-0.00002187,-0.00002686,-0.00000131,0.14344043,0.10024390,
 0.02783709,0.01794256,0.00788506,-0.00146155,0.00069386,0.00297584,0.0
 0087067,0.00074950,0.00065016,0.00006448,-0.00003331,0.00008080,0.0011
 5968,-0.00373958,-0.00621748,-0.09954654,-0.09067629,-0.09868130,-0.00
 004630,-0.00001182,0.00007459,0.00028266,0.00005091,-0.00026154,-0.000
 02873,0.00002086,-0.00003098,-0.00002201,0.00000208,-0.00002757,-0.000
 00885,0.00001963,-0.00001993,0.08637775,0.07855956,0.09350943,-0.00627
 529,0.01343565,0.02580810,-0.00203731,-0.00241330,-0.00326962,-0.00005
 792,-0.00032626,-0.00035059,0.00005349,-0.00001217,-0.00003191,0.00348
 372,0.00485026,0.00515692,-0.04714567,-0.02291719,0.00180488,0.0001195
 9,-0.00006660,-0.00011884,-0.00015693,-0.00009671,0.00006019,-0.000042
 07,-0.00000661,-0.00000780,-0.00003666,0.00002614,-0.00012167,-0.00000
 515,-0.00001718,0.00001329,0.00545777,-0.00847452,-0.01547834,0.046642
 43,0.00008557,0.00649925,0.00784413,-0.00234500,-0.00154692,0.00081984
 ,0.00010481,-0.00022584,-0.00010772,-0.00000210,0.00001423,-0.00003015
 ,-0.00007657,-0.00022261,-0.00014153,-0.01803267,-0.12690548,-0.174064
 91,0.00013407,0.00003515,-0.00011335,-0.00003037,-0.00001279,-0.000003
 01,0.00001075,-0.00000535,-0.00000193,-0.00000718,0.00001957,0.0000081
 7,-0.00001615,-0.00003397,0.00001112,0.00415637,-0.00292733,-0.0035779
 6,0.01601848,0.12531208,0.00862912,-0.00874110,-0.01685158,-0.00241111
 ,-0.00001246,0.00161572,0.00019028,0.00012073,0.00009201,0.00000958,-0
 .00005514,0.00002705,-0.00359549,-0.00257702,-0.00226655,0.00953937,-0
 .15754583,-0.24949339,-0.00010059,0.00006549,0.00006455,0.00006406,0.0
 0007722,-0.00003395,0.00000066,0.00003665,0.00000498,0.00002056,-0.000
 05448,0.00004366,0.00002627,0.00005183,-0.00001422,0.00109189,-0.00072
 320,0.00006294,-0.01346461,0.16935730,0.26674881\\-0.00000030,-0.00000
 009,-0.00000038,-0.00000049,0.00000005,-0.00000007,0.00000005,0.000000
 02,0.00000028,0.00000048,-0.00000015,0.00000014,-0.00000015,0.00000035
 ,0.00000043,-0.00000036,0.00000014,-0.00000045,0.00000016,-0.00000014,
 0.00000048,-0.00000001,-0.00000003,0.00000058,0.00000068,-0.00000021,0
 .00000036,0.00000053,-0.00000017,-0.00000009,0.00000038,-0.00000010,0.
 ,-0.00000032,0.00000013,-0.00000072,-0.00000065,0.00000021,-0.00000054
 \\\@


 THERE IS SOMETHING FASCINATING ABOUT SCIENCE.
 ONE GETS SUCH WHOLESALE CONJECTURE OUT OF SUCH TRIFLING INVESTMENTS.

                                                       -- MARK TWAIN
 Job cpu time:       0 days  1 hours 56 minutes 13.3 seconds.
 Elapsed time:       0 days  0 hours  5 minutes 49.0 seconds.
 File lengths (MBytes):  RWF=   1392 Int=      0 D2E=      0 Chk=     32 Scr=     32
 Normal termination of Gaussian 16 at Tue Apr  9 02:41:34 2019.
