 Entering Gaussian System, Link 0=g16
 Input=OJWHOIQFDAGZNF-UHFFFAOYSA-N_GeoFreq_a1.com
 Output=OJWHOIQFDAGZNF-UHFFFAOYSA-N_GeoFreq_a1.log
 Initial command:
 /shared/centos7/gaussian/g16/l1.exe "/scratch/underkoffler.c/gaussian_scratch/Gau-20672.inp" -scrdir="/scratch/underkoffler.c/gaussian_scratch/"
 Entering Link 1 = /shared/centos7/gaussian/g16/l1.exe PID=     20673.
  
 Copyright (c) 1988,1990,1992,1993,1995,1998,2003,2009,2016,
            Gaussian, Inc.  All Rights Reserved.
  
 This is part of the Gaussian(R) 16 program.  It is based on
 the Gaussian(R) 09 system (copyright 2009, Gaussian, Inc.),
 the Gaussian(R) 03 system (copyright 2003, Gaussian, Inc.),
 the Gaussian(R) 98 system (copyright 1998, Gaussian, Inc.),
 the Gaussian(R) 94 system (copyright 1995, Gaussian, Inc.),
 the Gaussian 92(TM) system (copyright 1992, Gaussian, Inc.),
 the Gaussian 90(TM) system (copyright 1990, Gaussian, Inc.),
 the Gaussian 88(TM) system (copyright 1988, Gaussian, Inc.),
 the Gaussian 86(TM) system (copyright 1986, Carnegie Mellon
 University), and the Gaussian 82(TM) system (copyright 1983,
 Carnegie Mellon University). Gaussian is a federally registered
 trademark of Gaussian, Inc.
  
 This software contains proprietary and confidential information,
 including trade secrets, belonging to Gaussian, Inc.
  
 This software is provided under written license and may be
 used, copied, transmitted, or stored only in accord with that
 written license.
  
 The following legend is applicable only to US Government
 contracts under FAR:
  
                    RESTRICTED RIGHTS LEGEND
  
 Use, reproduction and disclosure by the US Government is
 subject to restrictions as set forth in subparagraphs (a)
 and (c) of the Commercial Computer Software - Restricted
 Rights clause in FAR 52.227-19.
  
 Gaussian, Inc.
 340 Quinnipiac St., Bldg. 40, Wallingford CT 06492
  
  
 ---------------------------------------------------------------
 Warning -- This program may not be used in any manner that
 competes with the business of Gaussian, Inc. or will provide
 assistance to any competitor of Gaussian, Inc.  The licensee
 of this program is prohibited from giving any competitor of
 Gaussian, Inc. access to this program.  By using this program,
 the user acknowledges that Gaussian, Inc. is engaged in the
 business of creating and licensing software in the field of
 computational chemistry and represents and warrants to the
 licensee that it is not a competitor of Gaussian, Inc. and that
 it will not use this program in any manner prohibited above.
 ---------------------------------------------------------------
  

 Cite this work as:
 Gaussian 16, Revision A.03,
 M. J. Frisch, G. W. Trucks, H. B. Schlegel, G. E. Scuseria, 
 M. A. Robb, J. R. Cheeseman, G. Scalmani, V. Barone, 
 G. A. Petersson, H. Nakatsuji, X. Li, M. Caricato, A. V. Marenich, 
 J. Bloino, B. G. Janesko, R. Gomperts, B. Mennucci, H. P. Hratchian, 
 J. V. Ortiz, A. F. Izmaylov, J. L. Sonnenberg, D. Williams-Young, 
 F. Ding, F. Lipparini, F. Egidi, J. Goings, B. Peng, A. Petrone, 
 T. Henderson, D. Ranasinghe, V. G. Zakrzewski, J. Gao, N. Rega, 
 G. Zheng, W. Liang, M. Hada, M. Ehara, K. Toyota, R. Fukuda, 
 J. Hasegawa, M. Ishida, T. Nakajima, Y. Honda, O. Kitao, H. Nakai, 
 T. Vreven, K. Throssell, J. A. Montgomery, Jr., J. E. Peralta, 
 F. Ogliaro, M. J. Bearpark, J. J. Heyd, E. N. Brothers, K. N. Kudin, 
 V. N. Staroverov, T. A. Keith, R. Kobayashi, J. Normand, 
 K. Raghavachari, A. P. Rendell, J. C. Burant, S. S. Iyengar, 
 J. Tomasi, M. Cossi, J. M. Millam, M. Klene, C. Adamo, R. Cammi, 
 J. W. Ochterski, R. L. Martin, K. Morokuma, O. Farkas, 
 J. B. Foresman, and D. J. Fox, Gaussian, Inc., Wallingford CT, 2016.
 
 ******************************************
 Gaussian 16:  EM64L-G16RevA.03 25-Dec-2016
                11-Mar-2019 
 ******************************************
 %nprocshared=20
 Will use up to   20 processors via shared memory.
 %mem=5GB
 ----------------------------------------------------------------------
 #p m062x/6-311+g(2df,2p) opt=(calcfc,verytight,gdiis,maxcycles=900) fr
 eq iop(7/33=1,2/16=3)
 ----------------------------------------------------------------------

 Warning!  Use of Opt=GDIIS is deprecated since it is seldom a good choice.

 1/6=900,7=1,10=4,18=20,19=11,26=3,38=1/1,3;
 2/9=110,12=2,16=3,17=6,18=5,40=1/2;
 3/5=4,6=6,7=214,11=2,25=1,30=1,71=2,74=-55,140=1/1,2,3;
 4//1;
 5/5=2,38=5/2;
 8/6=4,10=90,11=11/1;
 11/6=1,8=1,9=11,15=111,16=1/1,2,10;
 10/6=1,13=1/2;
 6/7=2,8=2,9=2,10=2,28=1/1;
 7/10=1,18=20,25=1,33=1/1,2,3,16;
 1/6=900,7=1,10=4,18=20,19=11,26=3/3(2);
 2/9=110,16=3/2;
 99//99;
 2/9=110,16=3/2;
 3/5=4,6=6,7=214,11=2,25=1,30=1,71=1,74=-55/1,2,3;
 4/5=5,16=3,69=1/1;
 5/5=2,38=5/2;
 7/33=1/1,2,3,16;
 1/6=900,7=1,18=20,19=11,26=3/3(-5);
 2/9=110,16=3/2;
 6/7=2,8=2,9=2,10=2,19=2,28=1/1;
 99/9=1/99;
 Leave Link    1 at Mon Mar 11 15:45:32 2019, MaxMem=   671088640 cpu:              27.9 elap:               1.5
 (Enter /shared/centos7/gaussian/g16/l101.exe)
 ------------------------------
 Gaussian input prepared by ASE
 ------------------------------
 Symbolic Z-matrix:
 Charge =  0 Multiplicity = 2
 O                     1.21886  -0.66019  -0.00474 
 O                     0.12919   1.3049   -0.00679 
 C                    -1.13746  -0.74819   0.0015 
 C                    -2.41058   0.08026   0.00576 
 C                     0.09634   0.11017  -0.0043 
 C                     2.4264   -0.03531  -0.02379 
 H                    -1.08218  -1.40466  -0.869 
 H                    -1.07564  -1.40374   0.87221 
 H                    -3.28545  -0.56663   0.00965 
 H                    -2.45575   0.72171  -0.87207 
 H                    -2.44904   0.72315   0.88287 
 H                     2.4536    1.03191   0.1058 
 H                     3.26184  -0.70097   0.08771 
 
 Add atom      6 valence  3 ND=      2 dihedral       1      6     12     13
 ITRead=  0  0  0  0  0  0  0  0  0  0  0  0  0
 MicOpt= -1 -1 -1 -1 -1 -1 -1 -1 -1 -1 -1 -1 -1
 NAtoms=     13 NQM=       13 NQMF=       0 NMMI=      0 NMMIF=      0
                NMic=       0 NMicF=      0.
                    Isotopes and Nuclear Properties:
 (Nuclear quadrupole moments (NQMom) in fm**2, nuclear magnetic moments (NMagM)
  in nuclear magnetons)

  Atom         1           2           3           4           5           6           7           8           9          10
 IAtWgt=          16          16          12          12          12          12           1           1           1           1
 AtmWgt=  15.9949146  15.9949146  12.0000000  12.0000000  12.0000000  12.0000000   1.0078250   1.0078250   1.0078250   1.0078250
 NucSpn=           0           0           0           0           0           0           1           1           1           1
 AtZEff=  -0.0000000  -0.0000000  -0.0000000  -0.0000000  -0.0000000  -0.0000000  -0.0000000  -0.0000000  -0.0000000  -0.0000000
 NQMom=    0.0000000   0.0000000   0.0000000   0.0000000   0.0000000   0.0000000   0.0000000   0.0000000   0.0000000   0.0000000
 NMagM=    0.0000000   0.0000000   0.0000000   0.0000000   0.0000000   0.0000000   2.7928460   2.7928460   2.7928460   2.7928460
 AtZNuc=   8.0000000   8.0000000   6.0000000   6.0000000   6.0000000   6.0000000   1.0000000   1.0000000   1.0000000   1.0000000

  Atom        11          12          13
 IAtWgt=           1           1           1
 AtmWgt=   1.0078250   1.0078250   1.0078250
 NucSpn=           1           1           1
 AtZEff=  -0.0000000  -0.0000000  -0.0000000
 NQMom=    0.0000000   0.0000000   0.0000000
 NMagM=    2.7928460   2.7928460   2.7928460
 AtZNuc=   1.0000000   1.0000000   1.0000000
 Leave Link  101 at Mon Mar 11 15:45:32 2019, MaxMem=   671088640 cpu:               5.6 elap:               0.3
 (Enter /shared/centos7/gaussian/g16/l103.exe)

 GradGradGradGradGradGradGradGradGradGradGradGradGradGradGradGradGradGrad
 Berny optimization.
 Initialization pass.
                           ----------------------------
                           !    Initial Parameters    !
                           ! (Angstroms and Degrees)  !
 --------------------------                            --------------------------
 ! Name  Definition              Value          Derivative Info.                !
 --------------------------------------------------------------------------------
 ! R1    R(1,5)                  1.3614         calculate D2E/DX2 analytically  !
 ! R2    R(1,6)                  1.3598         calculate D2E/DX2 analytically  !
 ! R3    R(2,5)                  1.1952         calculate D2E/DX2 analytically  !
 ! R4    R(3,4)                  1.5189         calculate D2E/DX2 analytically  !
 ! R5    R(3,5)                  1.503          calculate D2E/DX2 analytically  !
 ! R6    R(3,7)                  1.0917         calculate D2E/DX2 analytically  !
 ! R7    R(3,8)                  1.0917         calculate D2E/DX2 analytically  !
 ! R8    R(4,9)                  1.0881         calculate D2E/DX2 analytically  !
 ! R9    R(4,10)                 1.0882         calculate D2E/DX2 analytically  !
 ! R10   R(4,11)                 1.0882         calculate D2E/DX2 analytically  !
 ! R11   R(6,12)                 1.0754         calculate D2E/DX2 analytically  !
 ! R12   R(6,13)                 1.074          calculate D2E/DX2 analytically  !
 ! A1    A(5,1,6)              118.1757         calculate D2E/DX2 analytically  !
 ! A2    A(4,3,5)              112.1207         calculate D2E/DX2 analytically  !
 ! A3    A(4,3,7)              111.8794         calculate D2E/DX2 analytically  !
 ! A4    A(4,3,8)              111.8859         calculate D2E/DX2 analytically  !
 ! A5    A(5,3,7)              107.3839         calculate D2E/DX2 analytically  !
 ! A6    A(5,3,8)              107.4299         calculate D2E/DX2 analytically  !
 ! A7    A(7,3,8)              105.7848         calculate D2E/DX2 analytically  !
 ! A8    A(3,4,9)              110.4676         calculate D2E/DX2 analytically  !
 ! A9    A(3,4,10)             110.7352         calculate D2E/DX2 analytically  !
 ! A10   A(3,4,11)             110.7392         calculate D2E/DX2 analytically  !
 ! A11   A(9,4,10)             108.6612         calculate D2E/DX2 analytically  !
 ! A12   A(9,4,11)             108.6597         calculate D2E/DX2 analytically  !
 ! A13   A(10,4,11)            107.4884         calculate D2E/DX2 analytically  !
 ! A14   A(1,5,2)              122.8852         calculate D2E/DX2 analytically  !
 ! A15   A(1,5,3)              110.7129         calculate D2E/DX2 analytically  !
 ! A16   A(2,5,3)              126.4019         calculate D2E/DX2 analytically  !
 ! A17   A(1,6,12)             118.4787         calculate D2E/DX2 analytically  !
 ! A18   A(1,6,13)             113.8601         calculate D2E/DX2 analytically  !
 ! A19   A(12,6,13)            125.6536         calculate D2E/DX2 analytically  !
 ! D1    D(6,1,5,2)             -0.746          calculate D2E/DX2 analytically  !
 ! D2    D(6,1,5,3)            179.3292         calculate D2E/DX2 analytically  !
 ! D3    D(5,1,6,12)             8.7282         calculate D2E/DX2 analytically  !
 ! D4    D(5,1,6,13)           173.5324         calculate D2E/DX2 analytically  !
 ! D5    D(5,3,4,9)            179.9854         calculate D2E/DX2 analytically  !
 ! D6    D(5,3,4,10)            59.5555         calculate D2E/DX2 analytically  !
 ! D7    D(5,3,4,11)           -59.5839         calculate D2E/DX2 analytically  !
 ! D8    D(7,3,4,9)             59.2696         calculate D2E/DX2 analytically  !
 ! D9    D(7,3,4,10)           -61.1604         calculate D2E/DX2 analytically  !
 ! D10   D(7,3,4,11)           179.7002         calculate D2E/DX2 analytically  !
 ! D11   D(8,3,4,9)            -59.2349         calculate D2E/DX2 analytically  !
 ! D12   D(8,3,4,10)          -179.6648         calculate D2E/DX2 analytically  !
 ! D13   D(8,3,4,11)            61.1958         calculate D2E/DX2 analytically  !
 ! D14   D(4,3,5,1)            179.853          calculate D2E/DX2 analytically  !
 ! D15   D(4,3,5,2)             -0.0685         calculate D2E/DX2 analytically  !
 ! D16   D(7,3,5,1)            -56.864          calculate D2E/DX2 analytically  !
 ! D17   D(7,3,5,2)            123.2145         calculate D2E/DX2 analytically  !
 ! D18   D(8,3,5,1)             56.53           calculate D2E/DX2 analytically  !
 ! D19   D(8,3,5,2)           -123.3915         calculate D2E/DX2 analytically  !
 ! D20   D(1,6,12,13)          162.8416         calculate D2E/DX2 analytically  !
 --------------------------------------------------------------------------------
 Trust Radius=3.00D-01 FncErr=1.00D-07 GrdErr=1.00D-06 EigMax=2.50D+02 EigMin=1.00D-04
 Number of steps in this run=    100 maximum allowed number of steps=    100.
 GradGradGradGradGradGradGradGradGradGradGradGradGradGradGradGradGradGrad

 Leave Link  103 at Mon Mar 11 15:45:32 2019, MaxMem=   671088640 cpu:               0.2 elap:               0.0
 (Enter /shared/centos7/gaussian/g16/l202.exe)
                          Input orientation:                          
 ---------------------------------------------------------------------
 Center     Atomic      Atomic             Coordinates (Angstroms)
 Number     Number       Type             X           Y           Z
 ---------------------------------------------------------------------
      1          8           0        1.218863   -0.660190   -0.004744
      2          8           0        0.129194    1.304897   -0.006787
      3          6           0       -1.137463   -0.748191    0.001503
      4          6           0       -2.410576    0.080262    0.005760
      5          6           0        0.096337    0.110166   -0.004299
      6          6           0        2.426397   -0.035308   -0.023785
      7          1           0       -1.082185   -1.404663   -0.868995
      8          1           0       -1.075643   -1.403741    0.872211
      9          1           0       -3.285449   -0.566627    0.009653
     10          1           0       -2.455752    0.721711   -0.872069
     11          1           0       -2.449036    0.723151    0.882871
     12          1           0        2.453604    1.031911    0.105797
     13          1           0        3.261837   -0.700966    0.087714
 ---------------------------------------------------------------------
                    Distance matrix (angstroms):
                    1          2          3          4          5
     1  O    0.000000
     2  O    2.246987   0.000000
     3  C    2.357977   2.412397   0.000000
     4  C    3.704215   2.819631   1.518937   0.000000
     5  C    1.361438   1.195185   1.503021   2.507112   0.000000
     6  C    1.359771   2.659620   3.634548   4.838444   2.334678
     7  H    2.568266   3.090721   1.091686   2.175964   2.105070
     8  H    2.566452   3.092085   1.091650   2.176017   2.105640
     9  H    4.505307   3.893926   2.155661   1.088064   3.448872
    10  H    4.020535   2.787609   2.159080   1.088155   2.764086
    11  H    4.019325   2.788761   2.159139   1.088168   2.764371
    12  H    2.097620   2.343092   4.009414   4.957408   2.533465
    13  H    2.045472   3.721004   4.400398   5.726544   3.269066
                    6          7          8          9         10
     6  C    0.000000
     7  H    3.860008   0.000000
     8  H    3.865191   1.741219   0.000000
     9  H    5.736602   2.515691   2.515553   0.000000
    10  H    5.012788   2.531435   3.076485   1.767950   0.000000
    11  H    5.016685   3.076509   2.531796   1.767943   1.754953
    12  H    1.075401   4.403285   4.356073   5.958296   5.015399
    13  H    1.074008   4.503444   4.463526   6.549129   5.969591
                   11         12         13
    11  H    0.000000
    12  H    4.973435   0.000000
    13  H    5.939230   1.912179   0.000000
 Stoichiometry    C4H7O2(2)
 Framework group  C1[X(C4H7O2)]
 Deg. of freedom    33
 Full point group                 C1      NOp   1
 Largest Abelian subgroup         C1      NOp   1
 Largest concise Abelian subgroup C1      NOp   1
                         Standard orientation:                         
 ---------------------------------------------------------------------
 Center     Atomic      Atomic             Coordinates (Angstroms)
 Number     Number       Type             X           Y           Z
 ---------------------------------------------------------------------
      1          8           0        1.218863   -0.660190   -0.004744
      2          8           0        0.129194    1.304897   -0.006787
      3          6           0       -1.137463   -0.748191    0.001503
      4          6           0       -2.410576    0.080262    0.005760
      5          6           0        0.096337    0.110166   -0.004299
      6          6           0        2.426397   -0.035308   -0.023785
      7          1           0       -1.082185   -1.404663   -0.868995
      8          1           0       -1.075643   -1.403741    0.872211
      9          1           0       -3.285449   -0.566627    0.009653
     10          1           0       -2.455752    0.721711   -0.872069
     11          1           0       -2.449036    0.723151    0.882871
     12          1           0        2.453604    1.031911    0.105797
     13          1           0        3.261837   -0.700966    0.087714
 ---------------------------------------------------------------------
 Rotational constants (GHZ):           9.8819261           2.2454852           1.8718113
 Leave Link  202 at Mon Mar 11 15:45:32 2019, MaxMem=   671088640 cpu:               0.2 elap:               0.0
 (Enter /shared/centos7/gaussian/g16/l301.exe)
 Standard basis: 6-311+G(2df,2p) (5D, 7F)
 Ernie: Thresh=  0.10000D-02 Tol=  0.10000D-05 Strict=F.
 There are   297 symmetry adapted cartesian basis functions of A   symmetry.
 There are   267 symmetry adapted basis functions of A   symmetry.
   267 basis functions,   389 primitive gaussians,   297 cartesian basis functions
    24 alpha electrons       23 beta electrons
       nuclear repulsion energy       236.9144988628 Hartrees.
 IExCor= 4336 DFT=T Ex+Corr=M062X ExCW=0 ScaHFX=  0.540000
 ScaDFX=  1.000000  1.000000  1.000000  1.000000 ScalE2=  1.000000  1.000000
 IRadAn=      5 IRanWt=     -1 IRanGd=            0 ICorTp=0 IEmpDi=  4
 NAtoms=   13 NActive=   13 NUniq=   13 SFac= 1.00D+00 NAtFMM=   60 NAOKFM=F Big=F
 Integral buffers will be    131072 words long.
 Raffenetti 2 integral format.
 Two-electron integral symmetry is turned on.
 Leave Link  301 at Mon Mar 11 15:45:33 2019, MaxMem=   671088640 cpu:               1.0 elap:               0.1
 (Enter /shared/centos7/gaussian/g16/l302.exe)
 NPDir=0 NMtPBC=     1 NCelOv=     1 NCel=       1 NClECP=     1 NCelD=      1
         NCelK=      1 NCelE2=     1 NClLst=     1 CellRange=     0.0.
 One-electron integrals computed using PRISM.
 One-electron integral symmetry used in STVInt
 NBasis=   267 RedAO= T EigKep=  3.03D-05  NBF=   267
 NBsUse=   267 1.00D-06 EigRej= -1.00D+00 NBFU=   267
 Precomputing XC quadrature grid using
 IXCGrd= 4 IRadAn=           5 IRanWt=          -1 IRanGd=           0 AccXCQ= 0.00D+00.
 Generated NRdTot=       0 NPtTot=           0 NUsed=           0 NTot=          32
 NSgBfM=   297   297   297   297   297 MxSgAt=    13 MxSgA2=    13.
 Leave Link  302 at Mon Mar 11 15:45:33 2019, MaxMem=   671088640 cpu:               6.4 elap:               0.3
 (Enter /shared/centos7/gaussian/g16/l303.exe)
 DipDrv:  MaxL=1.
 Leave Link  303 at Mon Mar 11 15:45:33 2019, MaxMem=   671088640 cpu:               0.5 elap:               0.0
 (Enter /shared/centos7/gaussian/g16/l401.exe)
 ExpMin= 4.38D-02 ExpMax= 8.59D+03 ExpMxC= 1.30D+03 IAcc=3 IRadAn=         5 AccDes= 0.00D+00
 Harris functional with IExCor= 1009 and IRadAn=       5 diagonalized for initial guess.
 HarFok:  IExCor= 1009 AccDes= 0.00D+00 IRadAn=         5 IDoV= 1 UseB2=F ITyADJ=14
 ICtDFT=  3500011 ScaDFX=  1.000000  1.000000  1.000000  1.000000
 FoFCou: FMM=F IPFlag=           0 FMFlag=      100000 FMFlg1=           0
         NFxFlg=           0 DoJE=T BraDBF=F KetDBF=T FulRan=T
         wScrn=  0.000000 ICntrl=       500 IOpCl=  0 I1Cent=   200000004 NGrid=           0
         NMat0=    1 NMatS0=      1 NMatT0=    0 NMatD0=    1 NMtDS0=    0 NMtDT0=    0
 Petite list used in FoFCou.
 Harris En= -306.876665927154    
 JPrj=0 DoOrth=F DoCkMO=F.
 Initial guess <Sx>= 0.0000 <Sy>= 0.0000 <Sz>= 0.5000 <S**2>= 0.7500 S= 0.5000
 Leave Link  401 at Mon Mar 11 15:45:34 2019, MaxMem=   671088640 cpu:              19.3 elap:               1.0
 (Enter /shared/centos7/gaussian/g16/l502.exe)
 Integral symmetry usage will be decided dynamically.
 UHF open shell SCF:
 Using DIIS extrapolation, IDIIS=  1040.
 NGot=   671088640 LenX=   670903575 LenY=   670814925
 Requested convergence on RMS density matrix=1.00D-08 within 128 cycles.
 Requested convergence on MAX density matrix=1.00D-06.
 Requested convergence on             energy=1.00D-06.
 No special actions if energy rises.
 Fock matrices will be formed incrementally for  20 cycles.

 Cycle   1  Pass 1  IDiag  1:
 FoFJK:  IHMeth= 1 ICntrl=       0 DoSepK=F KAlg= 0 I1Cent=           0 FoldK=F
 IRaf= 960000000 NMat=       1 IRICut=       1 DoRegI=T DoRafI=F ISym2E= 0 IDoP0=0 IntGTp=1.
 FoFCou: FMM=F IPFlag=           0 FMFlag=      100000 FMFlg1=           0
         NFxFlg=           0 DoJE=F BraDBF=F KetDBF=F FulRan=T
         wScrn=  0.000000 ICntrl=         0 IOpCl=  1 I1Cent=           0 NGrid=           0
         NMat0=    1 NMatS0=      1 NMatT0=    0 NMatD0=    1 NMtDS0=    0 NMtDT0=    0
 Symmetry not used in FoFCou.
 E= -306.812054776604    
 DIIS: error= 2.61D-02 at cycle   1 NSaved=   1.
 NSaved= 1 IEnMin= 1 EnMin= -306.812054776604     IErMin= 1 ErrMin= 2.61D-02
 ErrMax= 2.61D-02  0.00D+00 EMaxC= 1.00D-01 BMatC= 1.06D+00 BMatP= 1.06D+00
 IDIUse=3 WtCom= 7.39D-01 WtEn= 2.61D-01
 Coeff-Com:  0.100D+01
 Coeff-En:   0.100D+01
 Coeff:      0.100D+01
 Gap=     0.286 Goal=   None    Shift=    0.000
 Gap=     0.265 Goal=   None    Shift=    0.000
 GapD=    0.265 DampG=1.000 DampE=0.500 DampFc=0.5000 IDamp=-1.
 Damping current iteration by 5.00D-01
 RMSDP=2.67D-03 MaxDP=1.09D-01              OVMax= 1.96D-01

 Cycle   2  Pass 1  IDiag  1:
 RMSU=  1.31D-03    CP:  9.75D-01
 E= -306.901882287005     Delta-E=       -0.089827510401 Rises=F Damp=T
 DIIS: error= 6.62D-03 at cycle   2 NSaved=   2.
 NSaved= 2 IEnMin= 2 EnMin= -306.901882287005     IErMin= 2 ErrMin= 6.62D-03
 ErrMax= 6.62D-03  0.00D+00 EMaxC= 1.00D-01 BMatC= 9.97D-02 BMatP= 1.06D+00
 IDIUse=3 WtCom= 9.34D-01 WtEn= 6.62D-02
 Coeff-Com:  0.635D-03 0.999D+00
 Coeff-En:   0.176D-01 0.982D+00
 Coeff:      0.176D-02 0.998D+00
 Gap=     0.257 Goal=   None    Shift=    0.000
 Gap=     0.358 Goal=   None    Shift=    0.000
 RMSDP=1.08D-03 MaxDP=6.88D-02 DE=-8.98D-02 OVMax= 1.41D-01

 Cycle   3  Pass 1  IDiag  1:
 RMSU=  1.05D-03    CP:  9.50D-01  9.78D-01
 E= -306.995578429136     Delta-E=       -0.093696142132 Rises=F Damp=F
 DIIS: error= 1.05D-02 at cycle   3 NSaved=   3.
 NSaved= 3 IEnMin= 3 EnMin= -306.995578429136     IErMin= 2 ErrMin= 6.62D-03
 ErrMax= 1.05D-02  0.00D+00 EMaxC= 1.00D-01 BMatC= 7.11D-02 BMatP= 9.97D-02
 IDIUse=3 WtCom= 8.95D-01 WtEn= 1.05D-01
 Coeff-Com: -0.831D-01 0.486D+00 0.597D+00
 Coeff-En:   0.000D+00 0.000D+00 0.100D+01
 Coeff:     -0.743D-01 0.435D+00 0.639D+00
 Gap=     0.268 Goal=   None    Shift=    0.000
 Gap=     0.331 Goal=   None    Shift=    0.000
 RMSDP=4.23D-04 MaxDP=1.60D-02 DE=-9.37D-02 OVMax= 5.15D-02

 Cycle   4  Pass 1  IDiag  1:
 RMSU=  3.95D-04    CP:  9.52D-01  1.07D+00  9.13D-01
 E= -307.006378520907     Delta-E=       -0.010800091771 Rises=F Damp=F
 DIIS: error= 3.42D-03 at cycle   4 NSaved=   4.
 NSaved= 4 IEnMin= 4 EnMin= -307.006378520907     IErMin= 4 ErrMin= 3.42D-03
 ErrMax= 3.42D-03  0.00D+00 EMaxC= 1.00D-01 BMatC= 1.35D-02 BMatP= 7.11D-02
 IDIUse=3 WtCom= 9.66D-01 WtEn= 3.42D-02
 Coeff-Com: -0.287D-01 0.710D-01 0.335D+00 0.623D+00
 Coeff-En:   0.000D+00 0.000D+00 0.140D+00 0.860D+00
 Coeff:     -0.278D-01 0.686D-01 0.328D+00 0.631D+00
 Gap=     0.267 Goal=   None    Shift=    0.000
 Gap=     0.333 Goal=   None    Shift=    0.000
 RMSDP=1.51D-04 MaxDP=5.76D-03 DE=-1.08D-02 OVMax= 1.20D-02

 Cycle   5  Pass 1  IDiag  1:
 RMSU=  8.41D-05    CP:  9.49D-01  1.05D+00  9.80D-01  7.53D-01
 E= -307.008934558190     Delta-E=       -0.002556037283 Rises=F Damp=F
 DIIS: error= 6.81D-04 at cycle   5 NSaved=   5.
 NSaved= 5 IEnMin= 5 EnMin= -307.008934558190     IErMin= 5 ErrMin= 6.81D-04
 ErrMax= 6.81D-04  0.00D+00 EMaxC= 1.00D-01 BMatC= 2.25D-04 BMatP= 1.35D-02
 IDIUse=3 WtCom= 9.93D-01 WtEn= 6.81D-03
 Coeff-Com: -0.257D-02-0.372D-02 0.554D-01 0.156D+00 0.795D+00
 Coeff-En:   0.000D+00 0.000D+00 0.000D+00 0.000D+00 0.100D+01
 Coeff:     -0.255D-02-0.370D-02 0.550D-01 0.155D+00 0.796D+00
 Gap=     0.266 Goal=   None    Shift=    0.000
 Gap=     0.334 Goal=   None    Shift=    0.000
 RMSDP=3.60D-05 MaxDP=2.35D-03 DE=-2.56D-03 OVMax= 6.82D-03

 Cycle   6  Pass 1  IDiag  1:
 RMSU=  3.11D-05    CP:  9.49D-01  1.05D+00  9.90D-01  7.81D-01  1.10D+00
 E= -307.009036578969     Delta-E=       -0.000102020779 Rises=F Damp=F
 DIIS: error= 2.27D-04 at cycle   6 NSaved=   6.
 NSaved= 6 IEnMin= 6 EnMin= -307.009036578969     IErMin= 6 ErrMin= 2.27D-04
 ErrMax= 2.27D-04  0.00D+00 EMaxC= 1.00D-01 BMatC= 8.16D-05 BMatP= 2.25D-04
 IDIUse=3 WtCom= 9.98D-01 WtEn= 2.27D-03
 Coeff-Com:  0.445D-02-0.152D-01-0.456D-01-0.796D-01 0.268D+00 0.868D+00
 Coeff-En:   0.000D+00 0.000D+00 0.000D+00 0.000D+00 0.000D+00 0.100D+01
 Coeff:      0.444D-02-0.152D-01-0.455D-01-0.794D-01 0.268D+00 0.868D+00
 Gap=     0.267 Goal=   None    Shift=    0.000
 Gap=     0.335 Goal=   None    Shift=    0.000
 RMSDP=2.46D-05 MaxDP=1.24D-03 DE=-1.02D-04 OVMax= 4.61D-03

 Cycle   7  Pass 1  IDiag  1:
 RMSU=  1.44D-05    CP:  9.49D-01  1.05D+00  9.96D-01  7.94D-01  1.28D+00
                    CP:  1.27D+00
 E= -307.009073208792     Delta-E=       -0.000036629823 Rises=F Damp=F
 DIIS: error= 1.89D-04 at cycle   7 NSaved=   7.
 NSaved= 7 IEnMin= 7 EnMin= -307.009073208792     IErMin= 7 ErrMin= 1.89D-04
 ErrMax= 1.89D-04  0.00D+00 EMaxC= 1.00D-01 BMatC= 1.40D-05 BMatP= 8.16D-05
 IDIUse=3 WtCom= 9.98D-01 WtEn= 1.89D-03
 Coeff-Com:  0.239D-02-0.435D-02-0.311D-01-0.754D-01-0.907D-01 0.332D+00
 Coeff-Com:  0.867D+00
 Coeff-En:   0.000D+00 0.000D+00 0.000D+00 0.000D+00 0.000D+00 0.000D+00
 Coeff-En:   0.100D+01
 Coeff:      0.239D-02-0.435D-02-0.311D-01-0.753D-01-0.905D-01 0.331D+00
 Coeff:      0.867D+00
 Gap=     0.268 Goal=   None    Shift=    0.000
 Gap=     0.335 Goal=   None    Shift=    0.000
 RMSDP=1.26D-05 MaxDP=6.83D-04 DE=-3.66D-05 OVMax= 2.74D-03

 Cycle   8  Pass 1  IDiag  1:
 RMSU=  6.55D-06    CP:  9.49D-01  1.05D+00  9.97D-01  7.94D-01  1.38D+00
                    CP:  1.49D+00  1.21D+00
 E= -307.009080872901     Delta-E=       -0.000007664109 Rises=F Damp=F
 DIIS: error= 2.85D-05 at cycle   8 NSaved=   8.
 NSaved= 8 IEnMin= 8 EnMin= -307.009080872901     IErMin= 8 ErrMin= 2.85D-05
 ErrMax= 2.85D-05  0.00D+00 EMaxC= 1.00D-01 BMatC= 1.61D-06 BMatP= 1.40D-05
 IDIUse=1 WtCom= 1.00D+00 WtEn= 0.00D+00
 Coeff-Com:  0.204D-03 0.269D-03-0.460D-02-0.160D-01-0.583D-01 0.813D-02
 Coeff-Com:  0.291D+00 0.779D+00
 Coeff:      0.204D-03 0.269D-03-0.460D-02-0.160D-01-0.583D-01 0.813D-02
 Coeff:      0.291D+00 0.779D+00
 Gap=     0.268 Goal=   None    Shift=    0.000
 Gap=     0.335 Goal=   None    Shift=    0.000
 RMSDP=3.37D-06 MaxDP=2.36D-04 DE=-7.66D-06 OVMax= 3.61D-04

 Cycle   9  Pass 1  IDiag  1:
 RMSU=  2.25D-06    CP:  9.49D-01  1.05D+00  9.97D-01  7.93D-01  1.39D+00
                    CP:  1.53D+00  1.34D+00  1.06D+00
 E= -307.009081439450     Delta-E=       -0.000000566548 Rises=F Damp=F
 DIIS: error= 8.97D-06 at cycle   9 NSaved=   9.
 NSaved= 9 IEnMin= 9 EnMin= -307.009081439450     IErMin= 9 ErrMin= 8.97D-06
 ErrMax= 8.97D-06  0.00D+00 EMaxC= 1.00D-01 BMatC= 1.02D-07 BMatP= 1.61D-06
 IDIUse=1 WtCom= 1.00D+00 WtEn= 0.00D+00
 Coeff-Com: -0.330D-03 0.732D-03 0.343D-02 0.761D-02 0.955D-03-0.404D-01
 Coeff-Com: -0.645D-01 0.119D+00 0.973D+00
 Coeff:     -0.330D-03 0.732D-03 0.343D-02 0.761D-02 0.955D-03-0.404D-01
 Coeff:     -0.645D-01 0.119D+00 0.973D+00
 Gap=     0.268 Goal=   None    Shift=    0.000
 Gap=     0.335 Goal=   None    Shift=    0.000
 RMSDP=1.32D-06 MaxDP=5.78D-05 DE=-5.67D-07 OVMax= 1.61D-04

 Cycle  10  Pass 1  IDiag  1:
 RMSU=  6.63D-07    CP:  9.49D-01  1.05D+00  9.97D-01  7.92D-01  1.39D+00
                    CP:  1.54D+00  1.38D+00  1.16D+00  1.15D+00
 E= -307.009081495669     Delta-E=       -0.000000056220 Rises=F Damp=F
 DIIS: error= 3.36D-06 at cycle  10 NSaved=  10.
 NSaved=10 IEnMin=10 EnMin= -307.009081495669     IErMin=10 ErrMin= 3.36D-06
 ErrMax= 3.36D-06  0.00D+00 EMaxC= 1.00D-01 BMatC= 9.90D-09 BMatP= 1.02D-07
 IDIUse=1 WtCom= 1.00D+00 WtEn= 0.00D+00
 Coeff-Com: -0.177D-04 0.826D-05 0.162D-03 0.106D-02 0.320D-02-0.220D-03
 Coeff-Com: -0.178D-01-0.454D-01 0.122D-01 0.105D+01
 Coeff:     -0.177D-04 0.826D-05 0.162D-03 0.106D-02 0.320D-02-0.220D-03
 Coeff:     -0.178D-01-0.454D-01 0.122D-01 0.105D+01
 Gap=     0.268 Goal=   None    Shift=    0.000
 Gap=     0.335 Goal=   None    Shift=    0.000
 RMSDP=3.54D-07 MaxDP=1.54D-05 DE=-5.62D-08 OVMax= 5.94D-05

 Cycle  11  Pass 1  IDiag  1:
 RMSU=  2.25D-07    CP:  9.49D-01  1.05D+00  9.97D-01  7.92D-01  1.39D+00
                    CP:  1.54D+00  1.38D+00  1.17D+00  1.21D+00  1.25D+00
 E= -307.009081503229     Delta-E=       -0.000000007560 Rises=F Damp=F
 DIIS: error= 2.01D-06 at cycle  11 NSaved=  11.
 NSaved=11 IEnMin=11 EnMin= -307.009081503229     IErMin=11 ErrMin= 2.01D-06
 ErrMax= 2.01D-06  0.00D+00 EMaxC= 1.00D-01 BMatC= 2.45D-09 BMatP= 9.90D-09
 IDIUse=1 WtCom= 1.00D+00 WtEn= 0.00D+00
 Coeff-Com:  0.386D-04-0.962D-04-0.418D-03-0.739D-03 0.739D-03 0.497D-02
 Coeff-Com:  0.490D-02-0.260D-01-0.137D+00 0.230D+00 0.924D+00
 Coeff:      0.386D-04-0.962D-04-0.418D-03-0.739D-03 0.739D-03 0.497D-02
 Coeff:      0.490D-02-0.260D-01-0.137D+00 0.230D+00 0.924D+00
 Gap=     0.268 Goal=   None    Shift=    0.000
 Gap=     0.335 Goal=   None    Shift=    0.000
 RMSDP=1.65D-07 MaxDP=8.27D-06 DE=-7.56D-09 OVMax= 2.90D-05

 Cycle  12  Pass 1  IDiag  1:
 RMSU=  9.01D-08    CP:  9.49D-01  1.05D+00  9.97D-01  7.92D-01  1.39D+00
                    CP:  1.54D+00  1.38D+00  1.17D+00  1.23D+00  1.43D+00
                    CP:  1.26D+00
 E= -307.009081505102     Delta-E=       -0.000000001873 Rises=F Damp=F
 DIIS: error= 1.03D-06 at cycle  12 NSaved=  12.
 NSaved=12 IEnMin=12 EnMin= -307.009081505102     IErMin=12 ErrMin= 1.03D-06
 ErrMax= 1.03D-06  0.00D+00 EMaxC= 1.00D-01 BMatC= 5.91D-10 BMatP= 2.45D-09
 IDIUse=1 WtCom= 1.00D+00 WtEn= 0.00D+00
 Coeff-Com:  0.145D-04-0.250D-04-0.166D-03-0.497D-03-0.595D-03 0.123D-02
 Coeff-Com:  0.627D-02 0.553D-02-0.401D-01-0.209D+00 0.240D+00 0.997D+00
 Coeff:      0.145D-04-0.250D-04-0.166D-03-0.497D-03-0.595D-03 0.123D-02
 Coeff:      0.627D-02 0.553D-02-0.401D-01-0.209D+00 0.240D+00 0.997D+00
 Gap=     0.268 Goal=   None    Shift=    0.000
 Gap=     0.335 Goal=   None    Shift=    0.000
 RMSDP=9.26D-08 MaxDP=5.72D-06 DE=-1.87D-09 OVMax= 1.90D-05

 Cycle  13  Pass 1  IDiag  1:
 RMSU=  4.86D-08    CP:  9.49D-01  1.05D+00  9.97D-01  7.92D-01  1.39D+00
                    CP:  1.54D+00  1.38D+00  1.17D+00  1.23D+00  1.49D+00
                    CP:  1.52D+00  1.26D+00
 E= -307.009081505646     Delta-E=       -0.000000000544 Rises=F Damp=F
 DIIS: error= 4.62D-07 at cycle  13 NSaved=  13.
 NSaved=13 IEnMin=13 EnMin= -307.009081505646     IErMin=13 ErrMin= 4.62D-07
 ErrMax= 4.62D-07  0.00D+00 EMaxC= 1.00D-01 BMatC= 7.29D-11 BMatP= 5.91D-10
 IDIUse=1 WtCom= 1.00D+00 WtEn= 0.00D+00
 Coeff-Com: -0.763D-05 0.172D-04 0.794D-04 0.155D-03-0.784D-04-0.886D-03
 Coeff-Com: -0.115D-02 0.438D-02 0.260D-01-0.349D-01-0.182D+00-0.265D-01
 Coeff-Com:  0.121D+01
 Coeff:     -0.763D-05 0.172D-04 0.794D-04 0.155D-03-0.784D-04-0.886D-03
 Coeff:     -0.115D-02 0.438D-02 0.260D-01-0.349D-01-0.182D+00-0.265D-01
 Coeff:      0.121D+01
 Gap=     0.268 Goal=   None    Shift=    0.000
 Gap=     0.335 Goal=   None    Shift=    0.000
 RMSDP=4.34D-08 MaxDP=2.84D-06 DE=-5.44D-10 OVMax= 7.27D-06

 Cycle  14  Pass 1  IDiag  1:
 RMSU=  1.78D-08    CP:  9.49D-01  1.05D+00  9.97D-01  7.92D-01  1.39D+00
                    CP:  1.54D+00  1.38D+00  1.17D+00  1.23D+00  1.50D+00
                    CP:  1.61D+00  1.54D+00  1.46D+00
 E= -307.009081505744     Delta-E=       -0.000000000097 Rises=F Damp=F
 DIIS: error= 1.53D-07 at cycle  14 NSaved=  14.
 NSaved=14 IEnMin=14 EnMin= -307.009081505744     IErMin=14 ErrMin= 1.53D-07
 ErrMax= 1.53D-07  0.00D+00 EMaxC= 1.00D-01 BMatC= 1.08D-11 BMatP= 7.29D-11
 IDIUse=1 WtCom= 1.00D+00 WtEn= 0.00D+00
 Coeff-Com: -0.966D-06 0.177D-05 0.185D-04 0.457D-04 0.708D-04-0.148D-03
 Coeff-Com: -0.596D-03-0.780D-03 0.436D-02 0.239D-01-0.151D-01-0.123D+00
 Coeff-Com: -0.339D-01 0.115D+01
 Coeff:     -0.966D-06 0.177D-05 0.185D-04 0.457D-04 0.708D-04-0.148D-03
 Coeff:     -0.596D-03-0.780D-03 0.436D-02 0.239D-01-0.151D-01-0.123D+00
 Coeff:     -0.339D-01 0.115D+01
 Gap=     0.268 Goal=   None    Shift=    0.000
 Gap=     0.335 Goal=   None    Shift=    0.000
 RMSDP=1.55D-08 MaxDP=8.60D-07 DE=-9.73D-11 OVMax= 2.45D-06

 Cycle  15  Pass 1  IDiag  1:
 RMSU=  7.48D-09    CP:  9.49D-01  1.05D+00  9.97D-01  7.92D-01  1.39D+00
                    CP:  1.54D+00  1.38D+00  1.17D+00  1.23D+00  1.50D+00
                    CP:  1.61D+00  1.59D+00  1.66D+00  1.40D+00
 E= -307.009081505755     Delta-E=       -0.000000000011 Rises=F Damp=F
 DIIS: error= 7.26D-08 at cycle  15 NSaved=  15.
 NSaved=15 IEnMin=15 EnMin= -307.009081505755     IErMin=15 ErrMin= 7.26D-08
 ErrMax= 7.26D-08  0.00D+00 EMaxC= 1.00D-01 BMatC= 1.92D-12 BMatP= 1.08D-11
 IDIUse=1 WtCom= 1.00D+00 WtEn= 0.00D+00
 Coeff-Com:  0.987D-06-0.227D-05-0.706D-05-0.150D-04 0.255D-04 0.849D-04
 Coeff-Com:  0.918D-04-0.792D-03-0.299D-02 0.796D-02 0.273D-01-0.201D-01
 Coeff-Com: -0.186D+00 0.153D+00 0.102D+01
 Coeff:      0.987D-06-0.227D-05-0.706D-05-0.150D-04 0.255D-04 0.849D-04
 Coeff:      0.918D-04-0.792D-03-0.299D-02 0.796D-02 0.273D-01-0.201D-01
 Coeff:     -0.186D+00 0.153D+00 0.102D+01
 Gap=     0.268 Goal=   None    Shift=    0.000
 Gap=     0.335 Goal=   None    Shift=    0.000
 RMSDP=6.71D-09 MaxDP=3.30D-07 DE=-1.14D-11 OVMax= 1.29D-06

 SCF Done:  E(UM062X) =  -307.009081506     A.U. after   15 cycles
            NFock= 15  Conv=0.67D-08     -V/T= 2.0035
 <Sx>= 0.0000 <Sy>= 0.0000 <Sz>= 0.5000 <S**2>= 0.7548 S= 0.5024
 <L.S>= 0.000000000000E+00
 KE= 3.059344561660D+02 PE=-1.191985679431D+03 EE= 3.421276428966D+02
 Annihilation of the first spin contaminant:
 S**2 before annihilation     0.7548,   after     0.7500
 Leave Link  502 at Mon Mar 11 15:46:21 2019, MaxMem=   671088640 cpu:             933.7 elap:              46.7
 (Enter /shared/centos7/gaussian/g16/l801.exe)
 DoSCS=F DFT=T ScalE2(SS,OS)=  1.000000  1.000000
 Range of M.O.s used for correlation:     1   267
 NBasis=   267 NAE=    24 NBE=    23 NFC=     0 NFV=     0
 NROrb=    267 NOA=    24 NOB=    23 NVA=   243 NVB=   244

 **** Warning!!: The largest alpha MO coefficient is  0.67076530D+02


 **** Warning!!: The largest beta MO coefficient is  0.59750753D+02

 Leave Link  801 at Mon Mar 11 15:46:21 2019, MaxMem=   671088640 cpu:               0.5 elap:               0.0
 (Enter /shared/centos7/gaussian/g16/l1101.exe)
 Using compressed storage, NAtomX=    13.
 Will process     14 centers per pass.
 Leave Link 1101 at Mon Mar 11 15:46:21 2019, MaxMem=   671088640 cpu:               6.4 elap:               0.4
 (Enter /shared/centos7/gaussian/g16/l1102.exe)
 Symmetrizing basis deriv contribution to polar:
 IMax=3 JMax=2 DiffMx= 0.00D+00
 Leave Link 1102 at Mon Mar 11 15:46:21 2019, MaxMem=   671088640 cpu:               0.5 elap:               0.1
 (Enter /shared/centos7/gaussian/g16/l1110.exe)
 Forming Gx(P) for the SCF density, NAtomX=    13.
 Integral derivatives from FoFJK, PRISM(SPDF).
 Do as many integral derivatives as possible in FoFJK.
 G2DrvN: MDV=     671087568.
 G2DrvN: will do    14 centers at a time, making    1 passes.
 Calling FoFCou, ICntrl=  3107 FMM=F I1Cent=   0 AccDes= 0.00D+00.
 FoFJK:  IHMeth= 1 ICntrl=    3107 DoSepK=F KAlg= 0 I1Cent=           0 FoldK=F
 IRaf=         0 NMat=       1 IRICut=       1 DoRegI=T DoRafI=F ISym2E= 0 IDoP0=0 IntGTp=1.
 FoFCou: FMM=F IPFlag=           0 FMFlag=      100000 FMFlg1=           0
         NFxFlg=           0 DoJE=F BraDBF=F KetDBF=F FulRan=T
         wScrn=  0.000000 ICntrl=      3107 IOpCl=  1 I1Cent=           0 NGrid=           0
         NMat0=    1 NMatS0=      1 NMatT0=    0 NMatD0=    1 NMtDS0=    0 NMtDT0=    0
 Symmetry not used in FoFCou.
 End of G2Drv F.D. properties file   721 does not exist.
 End of G2Drv F.D. properties file   722 does not exist.
 End of G2Drv F.D. properties file   788 does not exist.
 Leave Link 1110 at Mon Mar 11 15:47:38 2019, MaxMem=   671088640 cpu:            1536.2 elap:              76.8
 (Enter /shared/centos7/gaussian/g16/l1002.exe)
 Minotr:  UHF open shell wavefunction.
          IDoAtm=1111111111111
          Direct CPHF calculation.
          Differentiating once with respect to nuclear coordinates.
          Requested convergence is 1.0D-08 RMS, and 1.0D-07 maximum.
          Secondary convergence is 1.0D-12 RMS, and 1.0D-12 maximum.
          NewPWx=T KeepS1=F KeepF1=F KeepIn=T MapXYZ=F SortEE=F KeepMc=T.
         3966 words used for storage of precomputed grid.
 Two-electron integrals replicated using symmetry.
          MDV=     671088640 using IRadAn=       1.
          Solving linear equations simultaneously, MaxMat=     380.
 FoF2E skips out because all densities are zero.
 CalDSu exits because no D1Ps are significant.
 FoFJK:  IHMeth= 1 ICntrl=       0 DoSepK=F KAlg= 0 I1Cent=           0 FoldK=F
 IRaf= 950000000 NMat=      39 IRICut=      97 DoRegI=T DoRafI=T ISym2E= 2 IDoP0=3 IntGTp=3.
 FoFCou: FMM=F IPFlag=           0 FMFlag=      100000 FMFlg1=           0
         NFxFlg=           0 DoJE=F BraDBF=F KetDBF=F FulRan=T
         wScrn=  0.000000 ICntrl=         0 IOpCl=  1 I1Cent=           0 NGrid=           0
         NMat0=   39 NMatS0=     39 NMatT0=    0 NMatD0=   39 NMtDS0=    0 NMtDT0=    0
 Integrals replicated using symmetry in FoFCou.
 Raff kept on since  92.89% of shell-pairs survive, threshold=   0.20 IRatSp=93.
          There are    42 degrees of freedom in the 1st order CPHF.  IDoFFX=6 NUNeed=     0.
     36 vectors produced by pass  0 Test12= 2.72D-14 2.38D-09 XBig12= 1.91D-01 9.35D-02.
 AX will form    36 AO Fock derivatives at one time.
     36 vectors produced by pass  1 Test12= 2.72D-14 2.38D-09 XBig12= 2.10D-02 3.98D-02.
     36 vectors produced by pass  2 Test12= 2.72D-14 2.38D-09 XBig12= 8.53D-04 5.94D-03.
     36 vectors produced by pass  3 Test12= 2.72D-14 2.38D-09 XBig12= 1.32D-05 5.81D-04.
     36 vectors produced by pass  4 Test12= 2.72D-14 2.38D-09 XBig12= 1.76D-07 4.67D-05.
     36 vectors produced by pass  5 Test12= 2.72D-14 2.38D-09 XBig12= 2.84D-09 4.80D-06.
     33 vectors produced by pass  6 Test12= 2.72D-14 2.38D-09 XBig12= 2.99D-11 6.57D-07.
     17 vectors produced by pass  7 Test12= 2.72D-14 2.38D-09 XBig12= 1.96D-13 4.38D-08.
      2 vectors produced by pass  8 Test12= 2.72D-14 2.38D-09 XBig12= 1.03D-15 4.66D-09.
 InvSVY:  IOpt=1 It=  1 EMax= 2.00D-15
 Solved reduced A of dimension   268 with    36 vectors.
 End of Minotr F.D. properties file   721 does not exist.
 End of Minotr F.D. properties file   722 does not exist.
 End of Minotr F.D. properties file   788 does not exist.
 Leave Link 1002 at Mon Mar 11 15:49:40 2019, MaxMem=   671088640 cpu:            2431.8 elap:             121.6
 (Enter /shared/centos7/gaussian/g16/l601.exe)
 Copying SCF densities to generalized density rwf, IOpCl= 1 IROHF=0.

 **********************************************************************

            Population analysis using the SCF density.

 **********************************************************************

 Orbital symmetries:
 Alpha Orbitals:
       Occupied  (A) (A) (A) (A) (A) (A) (A) (A) (A) (A) (A) (A)
                 (A) (A) (A) (A) (A) (A) (A) (A) (A) (A) (A) (A)
       Virtual   (A) (A) (A) (A) (A) (A) (A) (A) (A) (A) (A) (A)
                 (A) (A) (A) (A) (A) (A) (A) (A) (A) (A) (A) (A)
                 (A) (A) (A) (A) (A) (A) (A) (A) (A) (A) (A) (A)
                 (A) (A) (A) (A) (A) (A) (A) (A) (A) (A) (A) (A)
                 (A) (A) (A) (A) (A) (A) (A) (A) (A) (A) (A) (A)
                 (A) (A) (A) (A) (A) (A) (A) (A) (A) (A) (A) (A)
                 (A) (A) (A) (A) (A) (A) (A) (A) (A) (A) (A) (A)
                 (A) (A) (A) (A) (A) (A) (A) (A) (A) (A) (A) (A)
                 (A) (A) (A) (A) (A) (A) (A) (A) (A) (A) (A) (A)
                 (A) (A) (A) (A) (A) (A) (A) (A) (A) (A) (A) (A)
                 (A) (A) (A) (A) (A) (A) (A) (A) (A) (A) (A) (A)
                 (A) (A) (A) (A) (A) (A) (A) (A) (A) (A) (A) (A)
                 (A) (A) (A) (A) (A) (A) (A) (A) (A) (A) (A) (A)
                 (A) (A) (A) (A) (A) (A) (A) (A) (A) (A) (A) (A)
                 (A) (A) (A) (A) (A) (A) (A) (A) (A) (A) (A) (A)
                 (A) (A) (A) (A) (A) (A) (A) (A) (A) (A) (A) (A)
                 (A) (A) (A) (A) (A) (A) (A) (A) (A) (A) (A) (A)
                 (A) (A) (A) (A) (A) (A) (A) (A) (A) (A) (A) (A)
                 (A) (A) (A) (A) (A) (A) (A) (A) (A) (A) (A) (A)
                 (A) (A) (A) (A) (A) (A) (A) (A) (A) (A) (A) (A)
                 (A) (A) (A)
 Beta  Orbitals:
       Occupied  (A) (A) (A) (A) (A) (A) (A) (A) (A) (A) (A) (A)
                 (A) (A) (A) (A) (A) (A) (A) (A) (A) (A) (A)
       Virtual   (A) (A) (A) (A) (A) (A) (A) (A) (A) (A) (A) (A)
                 (A) (A) (A) (A) (A) (A) (A) (A) (A) (A) (A) (A)
                 (A) (A) (A) (A) (A) (A) (A) (A) (A) (A) (A) (A)
                 (A) (A) (A) (A) (A) (A) (A) (A) (A) (A) (A) (A)
                 (A) (A) (A) (A) (A) (A) (A) (A) (A) (A) (A) (A)
                 (A) (A) (A) (A) (A) (A) (A) (A) (A) (A) (A) (A)
                 (A) (A) (A) (A) (A) (A) (A) (A) (A) (A) (A) (A)
                 (A) (A) (A) (A) (A) (A) (A) (A) (A) (A) (A) (A)
                 (A) (A) (A) (A) (A) (A) (A) (A) (A) (A) (A) (A)
                 (A) (A) (A) (A) (A) (A) (A) (A) (A) (A) (A) (A)
                 (A) (A) (A) (A) (A) (A) (A) (A) (A) (A) (A) (A)
                 (A) (A) (A) (A) (A) (A) (A) (A) (A) (A) (A) (A)
                 (A) (A) (A) (A) (A) (A) (A) (A) (A) (A) (A) (A)
                 (A) (A) (A) (A) (A) (A) (A) (A) (A) (A) (A) (A)
                 (A) (A) (A) (A) (A) (A) (A) (A) (A) (A) (A) (A)
                 (A) (A) (A) (A) (A) (A) (A) (A) (A) (A) (A) (A)
                 (A) (A) (A) (A) (A) (A) (A) (A) (A) (A) (A) (A)
                 (A) (A) (A) (A) (A) (A) (A) (A) (A) (A) (A) (A)
                 (A) (A) (A) (A) (A) (A) (A) (A) (A) (A) (A) (A)
                 (A) (A) (A) (A) (A) (A) (A) (A) (A) (A) (A) (A)
                 (A) (A) (A) (A)
 The electronic state is 2-A.
 Alpha  occ. eigenvalues --  -19.69221 -19.62476 -10.67876 -10.59676 -10.55790
 Alpha  occ. eigenvalues --  -10.53325  -1.25839  -1.16358  -0.90252  -0.82593
 Alpha  occ. eigenvalues --   -0.73170  -0.65635  -0.60251  -0.58376  -0.57802
 Alpha  occ. eigenvalues --   -0.52596  -0.51819  -0.45763  -0.44878  -0.43998
 Alpha  occ. eigenvalues --   -0.43851  -0.42126  -0.36830  -0.25609
 Alpha virt. eigenvalues --    0.01170   0.02793   0.03667   0.04034   0.04658
 Alpha virt. eigenvalues --    0.05121   0.05704   0.07629   0.08378   0.09066
 Alpha virt. eigenvalues --    0.09375   0.09516   0.11534   0.12535   0.14171
 Alpha virt. eigenvalues --    0.15228   0.18968   0.19393   0.20662   0.21153
 Alpha virt. eigenvalues --    0.22567   0.22782   0.23134   0.23787   0.25849
 Alpha virt. eigenvalues --    0.26114   0.28301   0.28652   0.29246   0.30434
 Alpha virt. eigenvalues --    0.30988   0.33343   0.34912   0.36024   0.38380
 Alpha virt. eigenvalues --    0.40575   0.41114   0.46707   0.47331   0.47721
 Alpha virt. eigenvalues --    0.50466   0.51337   0.53190   0.53367   0.54592
 Alpha virt. eigenvalues --    0.56213   0.57939   0.58619   0.59773   0.60516
 Alpha virt. eigenvalues --    0.60566   0.65044   0.65125   0.67501   0.67677
 Alpha virt. eigenvalues --    0.70152   0.71240   0.75120   0.78095   0.79673
 Alpha virt. eigenvalues --    0.81238   0.81998   0.82738   0.84786   0.89280
 Alpha virt. eigenvalues --    0.90063   0.91588   0.92528   0.95722   0.98446
 Alpha virt. eigenvalues --    1.02668   1.04310   1.06046   1.09230   1.11990
 Alpha virt. eigenvalues --    1.12563   1.12963   1.14463   1.15609   1.17997
 Alpha virt. eigenvalues --    1.18515   1.20251   1.20930   1.22013   1.23005
 Alpha virt. eigenvalues --    1.24515   1.24760   1.27143   1.29924   1.33000
 Alpha virt. eigenvalues --    1.33806   1.38255   1.40765   1.42569   1.44364
 Alpha virt. eigenvalues --    1.45151   1.45722   1.49252   1.51858   1.53808
 Alpha virt. eigenvalues --    1.55903   1.58682   1.59869   1.62555   1.64017
 Alpha virt. eigenvalues --    1.67024   1.68445   1.71188   1.75991   1.82258
 Alpha virt. eigenvalues --    1.82890   1.92983   2.04134   2.10490   2.12581
 Alpha virt. eigenvalues --    2.30491   2.37219   2.39036   2.46941   2.51293
 Alpha virt. eigenvalues --    2.52251   2.60441   2.61350   2.65370   2.66524
 Alpha virt. eigenvalues --    2.73644   2.76785   2.79484   2.81015   2.82652
 Alpha virt. eigenvalues --    2.83248   2.83763   2.90751   2.92611   2.96857
 Alpha virt. eigenvalues --    2.98070   2.99401   3.03279   3.04180   3.06593
 Alpha virt. eigenvalues --    3.08269   3.11851   3.13384   3.15346   3.17595
 Alpha virt. eigenvalues --    3.18552   3.19364   3.23382   3.23509   3.25485
 Alpha virt. eigenvalues --    3.29649   3.31494   3.34831   3.37399   3.39000
 Alpha virt. eigenvalues --    3.39853   3.45396   3.47292   3.50315   3.52266
 Alpha virt. eigenvalues --    3.54867   3.55445   3.57305   3.61475   3.61659
 Alpha virt. eigenvalues --    3.66437   3.67101   3.70511   3.76597   3.81939
 Alpha virt. eigenvalues --    3.82532   3.85918   3.87196   3.94299   3.94734
 Alpha virt. eigenvalues --    3.95309   3.99074   4.01165   4.03251   4.05329
 Alpha virt. eigenvalues --    4.13496   4.13762   4.15890   4.17821   4.18479
 Alpha virt. eigenvalues --    4.26530   4.27550   4.28830   4.30546   4.33200
 Alpha virt. eigenvalues --    4.35028   4.46640   4.47544   4.50801   4.52881
 Alpha virt. eigenvalues --    4.55047   4.58217   4.69071   4.72002   4.91422
 Alpha virt. eigenvalues --    5.06796   5.08147   5.11972   5.18320   5.18935
 Alpha virt. eigenvalues --    5.20233   5.24069   5.28106   5.40479   5.43802
 Alpha virt. eigenvalues --    5.44516   5.47810   5.50641   5.54681   5.57282
 Alpha virt. eigenvalues --    5.65140   5.65630   5.70252   5.74699   5.80042
 Alpha virt. eigenvalues --    5.96373   6.15089   6.39132   6.49801   6.73057
 Alpha virt. eigenvalues --    6.81870   6.93463   7.04542   7.07051   7.17355
 Alpha virt. eigenvalues --    7.17502   7.26937   7.29912   7.53873   7.66729
 Alpha virt. eigenvalues --    7.76165   7.83164  24.33740  24.45078  24.46233
 Alpha virt. eigenvalues --   24.82353  50.15913  50.30077
  Beta  occ. eigenvalues --  -19.69056 -19.62423 -10.67865 -10.58947 -10.55793
  Beta  occ. eigenvalues --  -10.53326  -1.25197  -1.15965  -0.89986  -0.80920
  Beta  occ. eigenvalues --   -0.72244  -0.64257  -0.59986  -0.57317  -0.56977
  Beta  occ. eigenvalues --   -0.52113  -0.50672  -0.45442  -0.44724  -0.43701
  Beta  occ. eigenvalues --   -0.42528  -0.41705  -0.36694
  Beta virt. eigenvalues --   -0.03155   0.00999   0.02656   0.03652   0.04636
  Beta virt. eigenvalues --    0.04900   0.05135   0.05751   0.08077   0.08233
  Beta virt. eigenvalues --    0.08728   0.09633   0.09992   0.12083   0.12606
  Beta virt. eigenvalues --    0.14146   0.15135   0.19370   0.19597   0.20660
  Beta virt. eigenvalues --    0.21153   0.22883   0.23150   0.23238   0.23627
  Beta virt. eigenvalues --    0.25477   0.26108   0.28492   0.28612   0.29159
  Beta virt. eigenvalues --    0.30232   0.31605   0.33569   0.35049   0.36174
  Beta virt. eigenvalues --    0.38008   0.40656   0.41133   0.46847   0.47398
  Beta virt. eigenvalues --    0.47680   0.50678   0.51979   0.53345   0.53408
  Beta virt. eigenvalues --    0.55377   0.56883   0.58030   0.58983   0.60230
  Beta virt. eigenvalues --    0.60759   0.61536   0.64954   0.65297   0.67660
  Beta virt. eigenvalues --    0.68269   0.70156   0.71272   0.75078   0.77999
  Beta virt. eigenvalues --    0.79368   0.81266   0.82080   0.82981   0.84913
  Beta virt. eigenvalues --    0.88975   0.89993   0.91331   0.92404   0.95260
  Beta virt. eigenvalues --    0.98023   1.02473   1.04233   1.05796   1.09389
  Beta virt. eigenvalues --    1.11903   1.12654   1.12939   1.14527   1.15659
  Beta virt. eigenvalues --    1.18030   1.18480   1.20250   1.20929   1.21985
  Beta virt. eigenvalues --    1.22938   1.24639   1.24837   1.27229   1.30015
  Beta virt. eigenvalues --    1.33196   1.33947   1.38341   1.41439   1.42928
  Beta virt. eigenvalues --    1.44519   1.45182   1.46144   1.49513   1.52350
  Beta virt. eigenvalues --    1.53781   1.56251   1.59016   1.59915   1.62570
  Beta virt. eigenvalues --    1.64771   1.66854   1.68643   1.71617   1.76144
  Beta virt. eigenvalues --    1.82612   1.83608   1.93161   2.04262   2.10793
  Beta virt. eigenvalues --    2.12855   2.31481   2.37854   2.39194   2.47448
  Beta virt. eigenvalues --    2.51535   2.53093   2.61040   2.62617   2.65395
  Beta virt. eigenvalues --    2.66929   2.74188   2.78512   2.81143   2.82750
  Beta virt. eigenvalues --    2.83126   2.83822   2.85154   2.93008   2.96346
  Beta virt. eigenvalues --    2.97980   3.00145   3.02882   3.04358   3.06234
  Beta virt. eigenvalues --    3.09772   3.10519   3.12789   3.14380   3.17782
  Beta virt. eigenvalues --    3.19737   3.20293   3.21821   3.25798   3.26439
  Beta virt. eigenvalues --    3.28772   3.30338   3.33263   3.37644   3.39339
  Beta virt. eigenvalues --    3.40793   3.41565   3.46741   3.48853   3.50943
  Beta virt. eigenvalues --    3.53569   3.56000   3.56922   3.59537   3.62033
  Beta virt. eigenvalues --    3.62393   3.67014   3.68525   3.72440   3.76825
  Beta virt. eigenvalues --    3.82548   3.84553   3.87110   3.90999   3.94720
  Beta virt. eigenvalues --    3.94902   3.95918   3.99463   4.01250   4.04353
  Beta virt. eigenvalues --    4.06109   4.14125   4.17604   4.19273   4.20717
  Beta virt. eigenvalues --    4.21896   4.26731   4.27792   4.28935   4.30589
  Beta virt. eigenvalues --    4.34508   4.35820   4.46884   4.47585   4.50811
  Beta virt. eigenvalues --    4.53047   4.55046   4.58843   4.71931   4.72175
  Beta virt. eigenvalues --    4.92038   5.07128   5.09081   5.12624   5.19080
  Beta virt. eigenvalues --    5.19586   5.21534   5.25053   5.31726   5.41047
  Beta virt. eigenvalues --    5.44618   5.46178   5.50088   5.54003   5.57113
  Beta virt. eigenvalues --    5.57302   5.65429   5.65789   5.71688   5.75480
  Beta virt. eigenvalues --    5.80992   5.97209   6.16128   6.39454   6.50265
  Beta virt. eigenvalues --    6.73600   6.82358   6.93928   7.04941   7.07236
  Beta virt. eigenvalues --    7.17851   7.17895   7.27084   7.30393   7.54067
  Beta virt. eigenvalues --    7.66928   7.76093   7.83405  24.33744  24.45741
  Beta virt. eigenvalues --   24.47070  24.82451  50.15768  50.30001
          Condensed to atoms (all electrons):
               1          2          3          4          5          6
     1  O    8.142678  -0.086748  -0.181877   0.006182   0.219857   0.081725
     2  O   -0.086748   8.161380   0.006136  -0.039043   0.377277  -0.010192
     3  C   -0.181877   0.006136   5.629817   0.098345  -0.160859  -0.054968
     4  C    0.006182  -0.039043   0.098345   5.165190   0.104523  -0.015975
     5  C    0.219857   0.377277  -0.160859   0.104523   5.431397  -0.136742
     6  C    0.081725  -0.010192  -0.054968  -0.015975  -0.136742   5.521616
     7  H    0.002146   0.000722   0.452578  -0.037997  -0.050359   0.001492
     8  H    0.001589   0.000698   0.455261  -0.039732  -0.050963   0.001410
     9  H   -0.000640   0.001231  -0.075810   0.422607   0.037572   0.000393
    10  H    0.000080  -0.001283  -0.025687   0.413853  -0.007302   0.000105
    11  H    0.000097  -0.001110  -0.027894   0.414510  -0.005893   0.000242
    12  H   -0.035739  -0.003094  -0.006918  -0.001073  -0.002496   0.434717
    13  H   -0.051973   0.001578   0.003292   0.000557   0.012624   0.429565
               7          8          9         10         11         12
     1  O    0.002146   0.001589  -0.000640   0.000080   0.000097  -0.035739
     2  O    0.000722   0.000698   0.001231  -0.001283  -0.001110  -0.003094
     3  C    0.452578   0.455261  -0.075810  -0.025687  -0.027894  -0.006918
     4  C   -0.037997  -0.039732   0.422607   0.413853   0.414510  -0.001073
     5  C   -0.050359  -0.050963   0.037572  -0.007302  -0.005893  -0.002496
     6  C    0.001492   0.001410   0.000393   0.000105   0.000242   0.434717
     7  H    0.514719  -0.037559  -0.003493  -0.006762   0.005402  -0.000038
     8  H   -0.037559   0.515300  -0.003432   0.005421  -0.006697   0.000022
     9  H   -0.003493  -0.003432   0.536860  -0.024870  -0.025027  -0.000000
    10  H   -0.006762   0.005421  -0.024870   0.526119  -0.031776  -0.000000
    11  H    0.005402  -0.006697  -0.025027  -0.031776   0.526395  -0.000013
    12  H   -0.000038   0.000022  -0.000000  -0.000000  -0.000013   0.437112
    13  H   -0.000006  -0.000001  -0.000000  -0.000001  -0.000001  -0.024537
              13
     1  O   -0.051973
     2  O    0.001578
     3  C    0.003292
     4  C    0.000557
     5  C    0.012624
     6  C    0.429565
     7  H   -0.000006
     8  H   -0.000001
     9  H   -0.000000
    10  H   -0.000001
    11  H   -0.000001
    12  H   -0.024537
    13  H    0.456960
          Atomic-Atomic Spin Densities.
               1          2          3          4          5          6
     1  O    0.122319  -0.007489  -0.004073   0.001249   0.040470  -0.173960
     2  O   -0.007489   0.035415  -0.001752   0.000742  -0.009522   0.017017
     3  C   -0.004073  -0.001752   0.015854  -0.003272  -0.014089  -0.002847
     4  C    0.001249   0.000742  -0.003272  -0.006469   0.006722   0.000017
     5  C    0.040470  -0.009522  -0.014089   0.006722   0.042179  -0.026555
     6  C   -0.173960   0.017017  -0.002847   0.000017  -0.026555   1.214469
     7  H   -0.000785   0.000364  -0.000768   0.000932  -0.000617   0.000689
     8  H   -0.001086   0.000333   0.003241   0.000044  -0.003102   0.000434
     9  H    0.000007  -0.000026  -0.000407   0.000202   0.000264   0.000017
    10  H    0.000032  -0.000162   0.000536   0.000076  -0.000439  -0.000081
    11  H    0.000058  -0.000113  -0.000397   0.000385   0.000128  -0.000050
    12  H   -0.000779   0.002639  -0.000554   0.000069  -0.001085  -0.001904
    13  H    0.002057  -0.000144   0.001162  -0.000050   0.001206  -0.003375
               7          8          9         10         11         12
     1  O   -0.000785  -0.001086   0.000007   0.000032   0.000058  -0.000779
     2  O    0.000364   0.000333  -0.000026  -0.000162  -0.000113   0.002639
     3  C   -0.000768   0.003241  -0.000407   0.000536  -0.000397  -0.000554
     4  C    0.000932   0.000044   0.000202   0.000076   0.000385   0.000069
     5  C   -0.000617  -0.003102   0.000264  -0.000439   0.000128  -0.001085
     6  C    0.000689   0.000434   0.000017  -0.000081  -0.000050  -0.001904
     7  H    0.002750  -0.000653  -0.000029  -0.000161   0.000065  -0.000019
     8  H   -0.000653   0.002339   0.000006   0.000065  -0.000141   0.000019
     9  H   -0.000029   0.000006  -0.000116   0.000007  -0.000020   0.000000
    10  H   -0.000161   0.000065   0.000007   0.000472  -0.000168   0.000002
    11  H    0.000065  -0.000141  -0.000020  -0.000168   0.000444  -0.000004
    12  H   -0.000019   0.000019   0.000000   0.000002  -0.000004  -0.038326
    13  H   -0.000010   0.000015  -0.000000   0.000000  -0.000000   0.003876
              13
     1  O    0.002057
     2  O   -0.000144
     3  C    0.001162
     4  C   -0.000050
     5  C    0.001206
     6  C   -0.003375
     7  H   -0.000010
     8  H    0.000015
     9  H   -0.000000
    10  H    0.000000
    11  H   -0.000000
    12  H    0.003876
    13  H   -0.040252
 Mulliken charges and spin densities:
               1          2
     1  O   -0.097374  -0.021979
     2  O   -0.407553   0.037304
     3  C   -0.111417  -0.007365
     4  C   -0.491949   0.000647
     5  C    0.231364   0.035561
     6  C   -0.253388   1.023871
     7  H    0.159156   0.001757
     8  H    0.158686   0.001514
     9  H    0.134610  -0.000095
    10  H    0.152102   0.000178
    11  H    0.151764   0.000188
    12  H    0.202056  -0.036067
    13  H    0.171943  -0.035515
 Sum of Mulliken charges =  -0.00000   1.00000
 Mulliken charges and spin densities with hydrogens summed into heavy atoms:
               1          2
     1  O   -0.097374  -0.021979
     2  O   -0.407553   0.037304
     3  C    0.206425  -0.004094
     4  C   -0.053472   0.000918
     5  C    0.231364   0.035561
     6  C    0.120611   0.952290
 APT charges:
               1
     1  O   -0.016536
     2  O   -0.387795
     3  C   -0.616371
     4  C   -1.304520
     5  C    0.347368
     6  C   -1.102418
     7  H    0.381992
     8  H    0.381354
     9  H    0.571515
    10  H    0.331906
    11  H    0.331349
    12  H    0.368184
    13  H    0.713971
 Sum of APT charges =  -0.00000
 APT charges with hydrogens summed into heavy atoms:
               1
     1  O   -0.016536
     2  O   -0.387795
     3  C    0.146976
     4  C   -0.069750
     5  C    0.347368
     6  C   -0.020263
 Electronic spatial extent (au):  <R**2>=            660.1570
 Charge=             -0.0000 electrons
 Dipole moment (field-independent basis, Debye):
    X=             -0.3689    Y=             -1.8300    Z=              0.2175  Tot=              1.8794
 Quadrupole moment (field-independent basis, Debye-Ang):
   XX=            -31.7115   YY=            -39.7212   ZZ=            -36.6157
   XY=              1.0907   XZ=              0.6579   YZ=              0.0817
 Traceless Quadrupole moment (field-independent basis, Debye-Ang):
   XX=              4.3047   YY=             -3.7051   ZZ=             -0.5996
   XY=              1.0907   XZ=              0.6579   YZ=              0.0817
 Octapole moment (field-independent basis, Debye-Ang**2):
  XXX=             13.9062  YYY=             -3.2776  ZZZ=              0.3261  XYY=              0.9364
  XXY=             -1.3037  XXZ=              1.9777  XZZ=             -2.4959  YZZ=              0.0051
  YYZ=              0.2895  XYZ=              0.1060
 Hexadecapole moment (field-independent basis, Debye-Ang**3):
 XXXX=           -634.0635 YYYY=           -162.6900 ZZZZ=            -51.0723 XXXY=             -7.5769
 XXXZ=              6.4718 YYYX=              0.8838 YYYZ=              0.2171 ZZZX=              1.0730
 ZZZY=              0.0505 XXYY=           -131.5004 XXZZ=           -130.4801 YYZZ=            -32.7121
 XXYZ=              0.0364 YYXZ=              0.7975 ZZXY=             -1.5886
 N-N= 2.369144988628D+02 E-N=-1.191985677723D+03  KE= 3.059344561661D+02
  Exact polarizability:   0.000   0.000   0.000   0.000   0.000   0.000
 Approx polarizability:  66.250  -1.587  67.040  -0.146   0.012  53.020
                          Isotropic Fermi Contact Couplings
        Atom                 a.u.       MegaHertz       Gauss      10(-4) cm-1
     1  O(17)              0.01184      -7.17666      -2.56081      -2.39388
     2  O(17)              0.00487      -2.95144      -1.05315      -0.98450
     3  C(13)             -0.00251      -2.82586      -1.00834      -0.94261
     4  C(13)             -0.00040      -0.44929      -0.16032      -0.14987
     5  C(13)              0.00339       3.81476       1.36120       1.27247
     6  C(13)              0.17444     196.09889      69.97296      65.41155
     7  H(1)               0.00126       5.61219       2.00257       1.87203
     8  H(1)               0.00131       5.85464       2.08908       1.95290
     9  H(1)              -0.00006      -0.26315      -0.09390      -0.08778
    10  H(1)               0.00008       0.37533       0.13393       0.12520
    11  H(1)               0.00008       0.37322       0.13317       0.12449
    12  H(1)              -0.01405     -62.79204     -22.40576     -20.94517
    13  H(1)              -0.01402     -62.67495     -22.36398     -20.90611
 --------------------------------------------------------
       Center         ----  Spin Dipole Couplings  ----
                      3XX-RR        3YY-RR        3ZZ-RR
 --------------------------------------------------------
     1   Atom       -0.229418     -0.223369      0.452787
     2   Atom       -0.060317     -0.065616      0.125933
     3   Atom        0.003720     -0.004496      0.000776
     4   Atom        0.002496     -0.001301     -0.001195
     5   Atom       -0.004184     -0.022893      0.027077
     6   Atom       -0.543152     -0.535387      1.078538
     7   Atom        0.004151     -0.001642     -0.002509
     8   Atom        0.003928     -0.001593     -0.002335
     9   Atom        0.001772     -0.000902     -0.000870
    10   Atom        0.002503     -0.001231     -0.001271
    11   Atom        0.002414     -0.001209     -0.001205
    12   Atom       -0.069811      0.071499     -0.001688
    13   Atom        0.015356     -0.013109     -0.002247
 --------------------------------------------------------
                        XY            XZ            YZ
 --------------------------------------------------------
     1   Atom       -0.035501     -0.035492     -0.025649
     2   Atom       -0.008554      0.006146      0.001857
     3   Atom        0.000637      0.000212      0.000024
     4   Atom        0.000252     -0.000053     -0.000020
     5   Atom       -0.006722      0.000356     -0.000073
     6   Atom       -0.005849     -0.065510     -0.048963
     7   Atom        0.003058      0.001663      0.001100
     8   Atom        0.002981     -0.001944     -0.001273
     9   Atom        0.000208     -0.000044     -0.000007
    10   Atom       -0.000591      0.000693     -0.000075
    11   Atom       -0.000588     -0.000824      0.000088
    12   Atom        0.001485     -0.001586      0.011780
    13   Atom       -0.071197      0.006766     -0.008534
 --------------------------------------------------------


 ---------------------------------------------------------------------------------
              Anisotropic Spin Dipole Couplings in Principal Axis System
 ---------------------------------------------------------------------------------

       Atom             a.u.   MegaHertz   Gauss  10(-4) cm-1        Axes

              Baa    -0.2647    19.151     6.833     6.388  0.7380  0.6721  0.0605
     1 O(17)  Bbb    -0.1908    13.806     4.926     4.605 -0.6730  0.7396 -0.0076
              Bcc     0.4555   -32.957   -11.760   -10.993 -0.0499 -0.0351  0.9981
 
              Baa    -0.0721     5.214     1.860     1.739  0.5976  0.8014 -0.0261
     2 O(17)  Bbb    -0.0541     3.914     1.397     1.306  0.8011 -0.5981 -0.0212
              Bcc     0.1261    -9.128    -3.257    -3.045  0.0326  0.0082  0.9994
 
              Baa    -0.0045    -0.610    -0.218    -0.203 -0.0768  0.9970 -0.0014
     3 C(13)  Bbb     0.0008     0.102     0.036     0.034 -0.0705 -0.0040  0.9975
              Bcc     0.0038     0.508     0.181     0.169  0.9946  0.0767  0.0706
 
              Baa    -0.0013    -0.177    -0.063    -0.059 -0.0635  0.9894  0.1309
     4 C(13)  Bbb    -0.0012    -0.160    -0.057    -0.053  0.0230 -0.1296  0.9913
              Bcc     0.0025     0.337     0.120     0.112  0.9977  0.0660 -0.0145
 
              Baa    -0.0251    -3.363    -1.200    -1.122  0.3065  0.9519 -0.0008
     5 C(13)  Bbb    -0.0020    -0.272    -0.097    -0.091  0.9518 -0.3065 -0.0124
              Bcc     0.0271     3.634     1.297     1.212  0.0121 -0.0031  0.9999
 
              Baa    -0.5503   -73.848   -26.351   -24.633  0.8638  0.5014  0.0498
     6 C(13)  Bbb    -0.5323   -71.432   -25.489   -23.827 -0.5023  0.8647  0.0059
              Bcc     1.0826   145.281    51.840    48.460 -0.0401 -0.0301  0.9987
 
              Baa    -0.0033    -1.764    -0.629    -0.588 -0.1355  0.7074 -0.6937
     7 H(1)   Bbb    -0.0026    -1.397    -0.498    -0.466 -0.4333  0.5873  0.6836
              Bcc     0.0059     3.161     1.128     1.054  0.8910  0.3932  0.2270
 
              Baa    -0.0033    -1.767    -0.630    -0.589 -0.0918  0.6907  0.7173
     8 H(1)   Bbb    -0.0026    -1.365    -0.487    -0.455  0.4704 -0.6048  0.6426
              Bcc     0.0059     3.132     1.118     1.045  0.8777  0.3964 -0.2694
 
              Baa    -0.0009    -0.490    -0.175    -0.163 -0.0758  0.9950  0.0648
     9 H(1)   Bbb    -0.0009    -0.464    -0.166    -0.155  0.0217 -0.0633  0.9978
              Bcc     0.0018     0.954     0.340     0.318  0.9969  0.0770 -0.0168
 
              Baa    -0.0014    -0.750    -0.267    -0.250 -0.2130 -0.3301  0.9196
    10 H(1)   Bbb    -0.0013    -0.699    -0.250    -0.233  0.0803  0.9321  0.3532
              Bcc     0.0027     1.449     0.517     0.483  0.9737 -0.1491  0.1720
 
              Baa    -0.0014    -0.746    -0.266    -0.249  0.2494  0.3541  0.9014
    11 H(1)   Bbb    -0.0013    -0.686    -0.245    -0.229  0.0621  0.9230 -0.3798
              Bcc     0.0027     1.431     0.511     0.477  0.9664 -0.1507 -0.2082
 
              Baa    -0.0699   -37.279   -13.302   -12.435  0.9996 -0.0126  0.0254
    12 H(1)   Bbb    -0.0035    -1.862    -0.664    -0.621 -0.0271 -0.1546  0.9876
              Bcc     0.0734    39.141    13.966    13.056  0.0085  0.9879  0.1549
 
              Baa    -0.0716   -38.181   -13.624   -12.736  0.6318  0.7744  0.0337
    13 H(1)   Bbb    -0.0036    -1.938    -0.692    -0.647 -0.1267  0.0603  0.9901
              Bcc     0.0752    40.119    14.316    13.382  0.7647 -0.6298  0.1362
 

 ---------------------------------------------------------------------------------

 No NMR shielding tensors so no spin-rotation constants.
 Leave Link  601 at Mon Mar 11 15:49:40 2019, MaxMem=   671088640 cpu:               8.4 elap:               0.5
 (Enter /shared/centos7/gaussian/g16/l701.exe)
 SCFChk:  SCF convergence  6.71D-09 required  1.00D-08
 ... and contract with generalized density number  0.
 Compute integral second derivatives.
 Entering OneElI...
 Calculate overlap and kinetic energy integrals
    NBasis = 297  MinDer = 2  MaxDer = 2
 Requested accuracy = 0.1000D-12
 PrmmSu-InSpLW:  IPartL=    0 NPrtUS=   20 NPrtUL=    1 DoSpLW=F IThBeg=    0 IThEnd=   19 NThAct=   20.
 PrsmSu:  NPrtUS=  20 ThrOK=T IAlg=1 NPAlg=1 LenDen=           0 ISkipM=0 DoSpLW=F IThBeg=    0 IThEnd=   19.
 Prism:   IPart=     0 DynPar=F LinDyn=F Incr=           1.
 PRISM was handed    33455497 working-precision words and  3455 shell-pairs
 PRISM was handed    33455497 working-precision words and  3455 shell-pairs
 PRISM was handed    33455497 working-precision words and  3455 shell-pairs
 PRISM was handed    33455497 working-precision words and  3455 shell-pairs
 PRISM was handed    33455497 working-precision words and  3455 shell-pairs
 PRISM was handed    33455497 working-precision words and  3455 shell-pairs
 PRISM was handed    33455497 working-precision words and  3455 shell-pairs
 PRISM was handed    33455497 working-precision words and  3455 shell-pairs
 PRISM was handed    33455497 working-precision words and  3455 shell-pairs
 PRISM was handed    33455497 working-precision words and  3455 shell-pairs
 PRISM was handed    33455497 working-precision words and  3455 shell-pairs
 PRISM was handed    33455497 working-precision words and  3455 shell-pairs
 PRISM was handed    33455497 working-precision words and  3455 shell-pairs
 PRISM was handed    33455497 working-precision words and  3455 shell-pairs
 PRISM was handed    33455497 working-precision words and  3455 shell-pairs
 PRISM was handed    33455497 working-precision words and  3455 shell-pairs
 PRISM was handed    33455497 working-precision words and  3455 shell-pairs
 PRISM was handed    33455497 working-precision words and  3455 shell-pairs
 PRISM was handed    33455497 working-precision words and  3455 shell-pairs
 PRISM was handed    33455497 working-precision words and  3455 shell-pairs
 IPart=  4 NShTot=         189 NBatch=          46 AvBLen=         4.1
 IPart=  1 NShTot=         200 NBatch=          56 AvBLen=         3.6
 IPart=  3 NShTot=         191 NBatch=          47 AvBLen=         4.1
 IPart=  2 NShTot=         196 NBatch=          52 AvBLen=         3.8
 IPart= 17 NShTot=         153 NBatch=          30 AvBLen=         5.1
 IPart= 18 NShTot=         151 NBatch=          30 AvBLen=         5.0
 IPart= 15 NShTot=         157 NBatch=          30 AvBLen=         5.2
 IPart= 12 NShTot=         163 NBatch=          31 AvBLen=         5.3
 IPart= 13 NShTot=         162 NBatch=          31 AvBLen=         5.2
 IPart=  0 NShTot=         206 NBatch=          58 AvBLen=         3.6
 IPart=  5 NShTot=         186 NBatch=          43 AvBLen=         4.3
 IPart=  9 NShTot=         170 NBatch=          34 AvBLen=         5.0
 IPart= 16 NShTot=         155 NBatch=          30 AvBLen=         5.2
 IPart=  7 NShTot=         178 NBatch=          37 AvBLen=         4.8
 IPart= 14 NShTot=         159 NBatch=          30 AvBLen=         5.3
 IPart= 10 NShTot=         167 NBatch=          32 AvBLen=         5.2
 IPart=  6 NShTot=         182 NBatch=          40 AvBLen=         4.6
 IPart=  8 NShTot=         176 NBatch=          36 AvBLen=         4.9
 IPart= 19 NShTot=         149 NBatch=          30 AvBLen=         5.0
 IPart= 11 NShTot=         165 NBatch=          31 AvBLen=         5.3
 PrSmSu:  NxtVal=             21.
 Entering OneElI...
 Calculate potential energy integrals
    NBasis = 297  MinDer = 2  MaxDer = 2
 Requested accuracy = 0.1000D-12
 PrmmSu-InSpLW:  IPartL=    0 NPrtUS=   20 NPrtUL=    1 DoSpLW=F IThBeg=    0 IThEnd=   19 NThAct=   20.
 PrsmSu:  NPrtUS=  20 ThrOK=T IAlg=1 NPAlg=1 LenDen=           0 ISkipM=0 DoSpLW=F IThBeg=    0 IThEnd=   19.
 Prism:   IPart=     0 DynPar=F LinDyn=F Incr=          20.
 PRISM was handed    33470014 working-precision words and  3220 shell-pairs
 PRISM was handed    33470014 working-precision words and  3220 shell-pairs
 PRISM was handed    33470014 working-precision words and  3220 shell-pairs
 PRISM was handed    33470014 working-precision words and  3220 shell-pairs
 PRISM was handed    33470014 working-precision words and  3220 shell-pairs
 PRISM was handed    33470014 working-precision words and  3220 shell-pairs
 PRISM was handed    33470014 working-precision words and  3220 shell-pairs
 PRISM was handed    33470014 working-precision words and  3220 shell-pairs
 PRISM was handed    33470014 working-precision words and  3220 shell-pairs
 PRISM was handed    33470014 working-precision words and  3220 shell-pairs
 PRISM was handed    33470014 working-precision words and  3220 shell-pairs
 PRISM was handed    33470014 working-precision words and  3220 shell-pairs
 PRISM was handed    33470014 working-precision words and  3220 shell-pairs
 PRISM was handed    33470014 working-precision words and  3220 shell-pairs
 PRISM was handed    33470014 working-precision words and  3220 shell-pairs
 PRISM was handed    33470014 working-precision words and  3220 shell-pairs
 PRISM was handed    33470014 working-precision words and  3220 shell-pairs
 PRISM was handed    33470014 working-precision words and  3220 shell-pairs
 PRISM was handed    33470014 working-precision words and  3220 shell-pairs
 PRISM was handed    33470014 working-precision words and  3220 shell-pairs
 IPart= 14 NShTot=        1924 NBatch=         148 AvBLen=        13.0
 IPart= 15 NShTot=        1885 NBatch=         145 AvBLen=        13.0
 IPart= 18 NShTot=        1859 NBatch=         143 AvBLen=        13.0
 IPart= 17 NShTot=        1859 NBatch=         143 AvBLen=        13.0
 IPart= 13 NShTot=        1950 NBatch=         150 AvBLen=        13.0
 IPart= 12 NShTot=        1976 NBatch=         152 AvBLen=        13.0
 IPart= 11 NShTot=        1976 NBatch=         152 AvBLen=        13.0
 IPart= 10 NShTot=        2002 NBatch=         154 AvBLen=        13.0
 IPart=  4 NShTot=        2301 NBatch=         177 AvBLen=        13.0
 IPart=  3 NShTot=        2353 NBatch=         181 AvBLen=        13.0
 IPart=  2 NShTot=        2418 NBatch=         186 AvBLen=        13.0
 IPart=  0 NShTot=        2587 NBatch=         199 AvBLen=        13.0
 IPart=  1 NShTot=        2470 NBatch=         190 AvBLen=        13.0
 IPart= 19 NShTot=        1846 NBatch=         142 AvBLen=        13.0
 IPart= 16 NShTot=        1859 NBatch=         143 AvBLen=        13.0
 IPart=  9 NShTot=        2015 NBatch=         155 AvBLen=        13.0
 IPart=  7 NShTot=        2106 NBatch=         162 AvBLen=        13.0
 IPart=  5 NShTot=        2236 NBatch=         172 AvBLen=        13.0
 IPart=  8 NShTot=        2054 NBatch=         158 AvBLen=        13.0
 IPart=  6 NShTot=        2184 NBatch=         168 AvBLen=        13.0
 PrSmSu:  NxtVal=            401.
 Polarizability after L701:
                1             2             3 
      1  0.000000D+00
      2  0.000000D+00  0.000000D+00
      3  0.000000D+00  0.000000D+00  0.000000D+00
 Dipole Derivatives after L701:
                 1             2             3             4             5 
      1   0.267870D+00  0.194588D+00 -0.238188D-01 -0.371470D+00  0.531969D-01
      2   0.699265D-01 -0.740052D-01 -0.865037D-03 -0.390745D-02 -0.218770D+00
      3  -0.159286D-02 -0.357445D-02 -0.243472D+00 -0.300819D-02 -0.303044D-02
                 6             7             8             9            10 
      1   0.328215D-02  0.228711D+00 -0.110054D+01 -0.974897D-02 -0.201773D+01
      2   0.135079D-01 -0.218486D+00 -0.111445D+01 -0.580864D-02 -0.112351D+00
      3  -0.573145D+00 -0.147399D-01 -0.469699D-02 -0.963374D+00  0.562016D-02
                11            12            13            14            15 
      1   0.700993D+00  0.352103D-02  0.203920D+00  0.923554D-01  0.411149D-02
      2  -0.860355D+00  0.621505D-03  0.136789D+00  0.166289D+00 -0.618167D-02
      3  -0.170483D-02 -0.103547D+01  0.161014D-01  0.867098D-02  0.671896D+00
                16            17            18            19            20 
      1  -0.221493D+01 -0.449954D+00 -0.225046D+00  0.141271D+00  0.307174D+00
      2   0.245081D+00 -0.980879D+00 -0.194857D-01 -0.248974D-02  0.531960D+00
      3  -0.449719D-01 -0.208276D-01 -0.111446D+00  0.945561D-02  0.243749D+00
                21            22            23            24            25 
      1   0.361786D+00  0.139673D+00  0.304974D+00 -0.358762D+00  0.131320D+01
      2   0.463184D+00 -0.581071D-02  0.530564D+00 -0.462515D+00  0.221497D+00
      3   0.472747D+00 -0.689892D-02 -0.244478D+00  0.473826D+00 -0.352982D-02
                26            27            28            29            30 
      1   0.845566D+00 -0.526408D-02  0.202208D+00 -0.639198D+00  0.799222D+00
      2   0.294292D+00 -0.964466D-03 -0.235820D-01  0.322284D+00 -0.258148D+00
      3  -0.248336D-02  0.107048D+00  0.495029D-02 -0.241925D+00  0.471224D+00
                31            32            33            34            35 
      1   0.197642D+00 -0.638212D+00 -0.795537D+00  0.276554D+00  0.134154D+01
      2  -0.220061D-01  0.322417D+00  0.258478D+00  0.112256D-01  0.688615D+00
      3  -0.335586D-02  0.245295D+00  0.473989D+00  0.232304D-02  0.584267D-01
                36            37            38            39 
      1   0.118345D+00  0.163308D+01 -0.101249D+01  0.127909D+00
      2   0.509298D-01 -0.295887D+00  0.392040D+00 -0.327522D-01
      3   0.139382D+00  0.396470D-01 -0.334209D-01  0.116795D+00
 Hessian after L701:
                1             2             3             4             5 
      1  0.468907D+00
      2  0.201167D+01  0.119860D+02
      3  0.870651D-01  0.296624D-01  0.174341D+02
      4  0.433833D+00 -0.629756D+00  0.268089D-03  0.150429D+02
      5 -0.679128D+00  0.183810D-01 -0.515103D-02 -0.324765D+00 -0.778497D+00
      6 -0.723534D-03 -0.484020D-03  0.866793D-01  0.151385D-01  0.111991D-01
      7  0.474533D+00  0.270577D+00 -0.240270D-01  0.330807D+00  0.720062D+00
      8  0.110620D+00  0.129402D+00 -0.250385D-02  0.568033D+00  0.217853D+00
      9 -0.141024D-01 -0.371504D-03  0.148075D+00  0.385674D-02  0.114822D-01
     10  0.369125D+00 -0.156397D+00  0.147254D-02  0.339312D+00  0.304398D+00
     11 -0.121584D+00 -0.149618D+00 -0.403701D-03  0.363854D+00 -0.487641D-01
     12  0.377325D-03 -0.722011D-04 -0.189186D+00 -0.550687D-02 -0.311102D-02
     13 -0.142831D+01 -0.470839D+01  0.158758D-01 -0.168930D+02  0.398800D+00
     14 -0.463685D+01 -0.610634D+01  0.143744D-01  0.469635D+00  0.607084D+00
     15  0.154114D-01  0.443614D-02 -0.101060D+02 -0.148532D-01 -0.135089D-01
     16 -0.592487D+00  0.330368D+01 -0.119142D+00  0.407723D+00 -0.526833D+00
     17  0.328401D+01 -0.615504D+01 -0.655171D-01 -0.609279D+00 -0.308033D-01
     18 -0.122869D+00 -0.630663D-01 -0.743024D+01 -0.968121D-02  0.372981D-02
     19  0.854139D-01  0.537098D-01  0.753681D-01 -0.311945D-01  0.352037D-01
     20  0.109163D+00 -0.333233D-01  0.462315D-01  0.437202D-01  0.985035D-01
     21  0.125009D+00  0.420871D-01 -0.115354D-01  0.332761D-01  0.947521D-01
     22  0.848572D-01  0.525573D-01 -0.750009D-01 -0.318099D-01  0.342212D-01
     23  0.107756D+00 -0.320198D-01 -0.465608D-01  0.428478D-01  0.984220D-01
     24 -0.124232D+00 -0.418520D-01 -0.894836D-02 -0.330079D-01 -0.952231D-01
     25  0.330756D-01  0.940722D-03 -0.275001D-03  0.583489D-01  0.598751D-01
     26  0.165044D-01 -0.765511D-02 -0.158667D-03  0.444629D-01  0.142825D-01
     27 -0.158158D-03 -0.702001D-05 -0.103620D-01 -0.415970D-03 -0.305951D-03
     28  0.296535D-01 -0.175468D-01  0.899926D-02  0.938991D-01  0.424502D-01
     29 -0.336903D-01 -0.457487D-02 -0.743169D-02 -0.586070D-02 -0.589892D-01
     30  0.338937D-01 -0.121385D-01 -0.852464D-02  0.934949D-01  0.312947D-01
     31  0.295451D-01 -0.176721D-01 -0.971591D-02  0.939072D-01  0.427117D-01
     32 -0.338394D-01 -0.455258D-02  0.796862D-02 -0.556615D-02 -0.593554D-01
     33 -0.343101D-01  0.123502D-01 -0.796292D-02 -0.942180D-01 -0.315007D-01
     34 -0.787613D-02 -0.601328D-01  0.156132D-01  0.769433D-01 -0.216274D-01
     35  0.366456D-01  0.256316D+00  0.446845D-01  0.105023D+00 -0.110415D+00
     36  0.146439D-01  0.401337D-01  0.557025D-01  0.734558D-02 -0.718864D-03
     37  0.197323D-01 -0.103246D+00  0.234990D-01  0.783129D-01 -0.853680D-01
     38 -0.171285D+00  0.103067D+00 -0.151944D-01 -0.623483D-01  0.322982D-01
     39  0.199944D-01 -0.106779D-01  0.482112D-01  0.430311D-02 -0.293835D-02
                6             7             8             9            10 
      6  0.194847D+02
      7  0.728808D-02  0.112788D+02
      8  0.134221D-01 -0.116893D+01  0.144548D+02
      9 -0.252992D+00  0.423684D-02 -0.955837D-02  0.160725D+02
     10 -0.432530D-02 -0.200115D+01 -0.204704D+01 -0.856712D-02  0.104162D+02
     11 -0.226395D-02 -0.201087D+01 -0.411328D+01  0.499860D-02  0.793361D+00
     12 -0.266094D+00 -0.889306D-02  0.530143D-02 -0.524947D+01  0.176251D-01
     13 -0.184222D-01 -0.181142D+01  0.242560D+01 -0.138275D-01  0.308474D+00
     14 -0.223228D-01  0.240645D+01 -0.470075D+01 -0.871690D-02  0.840106D-01
     15 -0.184281D+02 -0.148247D-01 -0.927443D-02 -0.586680D+01 -0.720307D-02
     16  0.767131D-02  0.126470D+00  0.288656D-01  0.153873D-01  0.246550D-01
[...]
 ! R6    R(3,7)                  1.0917         -DE/DX =    0.0                 !
 ! R7    R(3,8)                  1.0916         -DE/DX =    0.0                 !
 ! R8    R(4,9)                  1.0881         -DE/DX =    0.0                 !
 ! R9    R(4,10)                 1.0881         -DE/DX =    0.0                 !
 ! R10   R(4,11)                 1.0882         -DE/DX =    0.0                 !
 ! R11   R(6,12)                 1.0754         -DE/DX =    0.0                 !
 ! R12   R(6,13)                 1.074          -DE/DX =    0.0                 !
 ! A1    A(5,1,6)              118.1772         -DE/DX =    0.0                 !
 ! A2    A(4,3,5)              112.118          -DE/DX =    0.0                 !
 ! A3    A(4,3,7)              111.8688         -DE/DX =    0.0                 !
 ! A4    A(4,3,8)              111.8992         -DE/DX =    0.0                 !
 ! A5    A(5,3,7)              107.3567         -DE/DX =    0.0                 !
 ! A6    A(5,3,8)              107.4625         -DE/DX =    0.0                 !
 ! A7    A(7,3,8)              105.7794         -DE/DX =    0.0                 !
 ! A8    A(3,4,9)              110.4661         -DE/DX =    0.0                 !
 ! A9    A(3,4,10)             110.733          -DE/DX =    0.0                 !
 ! A10   A(3,4,11)             110.744          -DE/DX =    0.0                 !
 ! A11   A(9,4,10)             108.6664         -DE/DX =    0.0                 !
 ! A12   A(9,4,11)             108.6562         -DE/DX =    0.0                 !
 ! A13   A(10,4,11)            107.4856         -DE/DX =    0.0                 !
 ! A14   A(1,5,2)              122.885          -DE/DX =    0.0                 !
 ! A15   A(1,5,3)              110.7103         -DE/DX =    0.0                 !
 ! A16   A(2,5,3)              126.4047         -DE/DX =    0.0                 !
 ! A17   A(1,6,12)             118.479          -DE/DX =    0.0                 !
 ! A18   A(1,6,13)             113.8609         -DE/DX =    0.0                 !
 ! A19   A(12,6,13)            125.6503         -DE/DX =    0.0                 !
 ! D1    D(6,1,5,2)             -1.0689         -DE/DX =    0.0                 !
 ! D2    D(6,1,5,3)            178.9255         -DE/DX =    0.0                 !
 ! D3    D(5,1,6,12)             8.7415         -DE/DX =    0.0                 !
 ! D4    D(5,1,6,13)           173.5369         -DE/DX =    0.0                 !
 ! D5    D(5,3,4,9)            179.9311         -DE/DX =    0.0                 !
 ! D6    D(5,3,4,10)            59.4971         -DE/DX =    0.0                 !
 ! D7    D(5,3,4,11)           -59.6405         -DE/DX =    0.0                 !
 ! D8    D(7,3,4,9)             59.2599         -DE/DX =    0.0                 !
 ! D9    D(7,3,4,10)           -61.1741         -DE/DX =    0.0                 !
 ! D10   D(7,3,4,11)           179.6883         -DE/DX =    0.0                 !
 ! D11   D(8,3,4,9)            -59.2394         -DE/DX =    0.0                 !
 ! D12   D(8,3,4,10)          -179.6734         -DE/DX =    0.0                 !
 ! D13   D(8,3,4,11)            61.189          -DE/DX =    0.0                 !
 ! D14   D(4,3,5,1)            179.5936         -DE/DX =    0.0                 !
 ! D15   D(4,3,5,2)             -0.4123         -DE/DX =    0.0                 !
 ! D16   D(7,3,5,1)            -57.1573         -DE/DX =    0.0                 !
 ! D17   D(7,3,5,2)            122.8368         -DE/DX =    0.0                 !
 ! D18   D(8,3,5,1)             56.233          -DE/DX =    0.0                 !
 ! D19   D(8,3,5,2)           -123.7728         -DE/DX =    0.0                 !
 ! D20   D(1,6,12,13)          162.8324         -DE/DX =    0.0                 !
 --------------------------------------------------------------------------------
 GradGradGradGradGradGradGradGradGradGradGradGradGradGradGradGradGradGrad

 Leave Link  103 at Mon Mar 11 15:58:36 2019, MaxMem=   671088640 cpu:               0.4 elap:               0.0
 (Enter /shared/centos7/gaussian/g16/l9999.exe)

 ----------------------------------------------------------------------

 Electric dipole moment (input orientation):
 (Debye = 10**-18 statcoulomb cm , SI units = C m)
                  (au)            (Debye)         (10**-30 SI)
   Tot        0.738679D+00      0.187753D+01      0.626278D+01
   x         -0.145039D+00     -0.368652D+00     -0.122969D+01
   y         -0.719330D+00     -0.182835D+01     -0.609873D+01
   z          0.847063D-01      0.215302D+00      0.718170D+00

 Dipole polarizability, Alpha (input orientation).
 (esu units = cm**3 , SI units = C**2 m**2 J**-1)
 Alpha(0;0):
               (au)            (10**-24 esu)      (10**-40 SI)
   iso        0.557289D+02      0.825817D+01      0.918846D+01
   aniso      0.245920D+02      0.364416D+01      0.405467D+01
   xx         0.711079D+02      0.105371D+02      0.117241D+02
   yx        -0.106553D+01     -0.157895D+00     -0.175682D+00
   yy         0.528383D+02      0.782982D+01      0.871185D+01
   zx        -0.194849D+00     -0.288737D-01     -0.321263D-01
   zy        -0.226020D-01     -0.334927D-02     -0.372656D-02
   zz         0.432405D+02      0.640758D+01      0.712940D+01

 ----------------------------------------------------------------------

 Dipole orientation:
     8          2.43808066         -0.57877035          0.76326277
     8         -0.19050416          0.30946294         -2.45103442
     6         -1.83232295          0.15964710          1.79925167
     6         -4.42138197          0.81587413          0.74807221
     6          0.13894570         -0.00549464         -0.23893419
     6          4.42930066         -0.84052530         -0.83966581
     1         -1.84228766         -1.64786486          2.79372161
     1         -1.18475128          1.55341260          3.17527564
     1         -5.80729002          0.91988772          2.26338418
     1         -5.03607685         -0.60056934         -0.60992580
     1         -4.37452735          2.62632422         -0.22592901
     1          4.17824090         -0.32464488         -2.78922454
     1          6.21202732         -1.08605565          0.09887116

 Electric dipole moment (dipole orientation):
 (Debye = 10**-18 statcoulomb cm , SI units = C m)
                  (au)            (Debye)         (10**-30 SI)
   Tot        0.738679D+00      0.187753D+01      0.626278D+01
   x          0.000000D+00      0.000000D+00      0.000000D+00
   y          0.000000D+00      0.000000D+00      0.000000D+00
   z          0.738679D+00      0.187753D+01      0.626278D+01

 Dipole polarizability, Alpha (dipole orientation).
 (esu units = cm**3 , SI units = C**2 m**2 J**-1)
 Alpha(0;0):
               (au)            (10**-24 esu)      (10**-40 SI)
   iso        0.557289D+02      0.825817D+01      0.918846D+01
   aniso      0.245920D+02      0.364416D+01      0.405467D+01
   xx         0.697766D+02      0.103398D+02      0.115046D+02
   yx        -0.521905D+01     -0.773384D+00     -0.860505D+00
   yy         0.443874D+02      0.657754D+01      0.731850D+01
   zx        -0.272272D+01     -0.403465D+00     -0.448915D+00
   zy        -0.541058D+00     -0.801765D-01     -0.892084D-01
   zz         0.530228D+02      0.785716D+01      0.874227D+01

 ----------------------------------------------------------------------

 Test job not archived.
 1\1\GINC-C0319\Freq\UM062X\6-311+G(2df,2p)\C4H7O2(2)\UNDERKOFFLER.C\11
 -Mar-2019\0\\#P Geom=AllCheck Guess=TCheck SCRF=Check Test GenChk UM06
 2X/6-311+G(2df,2p) Freq\\Gaussian input prepared by ASE\\0,2\O,1.21878
 44368,-0.6603463909,0.001392167\O,0.129256573,1.3047918965,-0.00905706
 39\C,-1.1375275031,-0.7482480746,0.0010663746\C,-2.4105583503,0.080288
 9113,0.0064302597\C,0.0963087002,0.1100800715,-0.0028935734\C,2.426358
 3562,-0.0357551584,-0.0238687148\H,-1.0818744597,-1.4025753856,-0.8710
 616438\H,-1.0761891006,-1.4060303928,0.8700807088\H,-3.2854714604,-0.5
 665570545,0.0079818096\H,-2.4549152578,0.7240066443,-0.8697605203\H,-2
 .4497587464,0.720951841,0.8851474184\H,2.4538364559,1.0324190789,0.097
 5830891\H,3.2618783561,-0.7006139867,0.0917896892\\Version=EM64L-G16Re
 vA.03\State=2-A\HF=-307.0090822\S2=0.754824\S2-1=0.\S2A=0.750018\RMSD=
 6.360e-09\RMSF=3.035e-07\ZeroPoint=0.1045174\Thermal=0.1119682\Dipole=
 -0.145039,-0.7193297,0.0847063\DipoleDeriv=-1.8099568,0.1691966,0.0176
 42,0.2706182,-0.6863661,0.0007789,0.0172829,0.0113891,-0.1152344,-0.67
 95913,-0.115264,-0.0001522,0.3769232,-1.11376,-0.0041214,-0.0049928,0.
 0040763,-0.3297599,-0.0536834,-0.1132587,0.0002445,-0.2202382,-0.09002
 88,0.0019239,-0.0046078,-0.0025693,0.0901731,0.050343,0.0315644,-0.000
 2835,-0.0109362,0.0410141,0.0006184,-0.0000586,0.0005831,0.0519075,1.8
 640505,-0.1007269,-0.007274,-0.698224,1.4521402,0.0066885,0.0111946,-0
 .0025042,0.2663179,0.6535594,0.1075747,0.0011506,0.2301037,0.2369916,0
 .0013905,0.0513418,-0.0125368,-0.2935332,-0.0160786,0.0070944,0.023712
 2,0.0312557,0.0327746,-0.0541638,0.0195816,-0.0810357,-0.007082,-0.015
 7042,0.0084455,-0.0224296,0.0329426,0.0322785,0.0541575,-0.0193764,0.0
 821445,-0.0066728,-0.0976033,-0.064257,0.0005782,-0.0899318,-0.0025413
 ,0.0001169,0.0005204,-0.0000572,0.0804113,0.0468659,0.0065082,0.021063
 4,0.0497097,0.0127869,0.0673708,-0.0128432,0.0730268,-0.0407088,0.0464
 005,0.0060771,-0.0216514,0.0490177,0.0128469,-0.068213,0.0126126,-0.07
 34887,-0.0419558,0.017772,0.054846,0.0006196,-0.0512611,0.0449185,-0.0
 156421,-0.0233344,-0.0197665,0.1729128,-0.0063736,0.0021998,-0.0132199
 ,0.0300205,0.0269447,0.0090948,-0.0473208,0.0207386,0.1732244\Polar=71
 .1079387,-1.0655288,52.8382706,-0.1948493,-0.022602,43.2405191\Quadrup
 ole=3.2014125,-2.7538757,-0.4475368,0.8144663,0.483221,0.0635942\PG=C0
 1 [X(C4H7O2)]\NImag=0\\0.56942892,0.00733957,0.36356173,-0.00097288,-0
 .00133313,0.03809766,-0.00785774,0.05953564,-0.00015627,0.11805835,0.0
 6735618,-0.08503517,0.00092981,0.01248107,0.90535112,-0.00044306,0.000
 73403,0.02692153,0.00024085,-0.00455317,0.03105389,-0.04715443,-0.0141
 2638,0.00026129,0.00573394,-0.00816584,0.00001842,0.49722537,0.0216759
 7,0.01283924,-0.00040190,-0.03027484,-0.04034019,0.00015665,-0.0234253
 7,0.54796758,0.00002767,0.00000612,0.01065879,0.00024054,0.00032694,0.
 02649570,0.00013635,-0.00055781,0.56176707,-0.00451065,-0.00211701,0.0
 0007284,0.00110250,0.00482126,-0.00004152,-0.16721720,0.05816815,0.000
 41422,0.52207410,-0.00788690,-0.00211604,0.00006463,-0.00256943,-0.000
 95625,0.00000496,0.06267910,-0.12319025,-0.00023996,0.04872295,0.55790
 157,0.00000811,0.00000163,0.00165706,-0.00002996,-0.00001318,-0.001467
 95,0.00040501,-0.00020628,-0.08064221,0.00021792,-0.00023138,0.5821365
 0,-0.19736234,0.04395285,-0.00035092,-0.11697069,-0.06260208,0.0005314
 2,-0.16637380,-0.05964419,0.00013858,-0.03291618,-0.01065072,0.0000547
 1,0.57887257,0.04296836,-0.13762339,0.00056570,-0.04071569,-0.77765657
 ,0.00344819,-0.05378035,-0.11001524,0.00022204,0.01087869,0.01477068,-
 0.00006738,0.07810198,1.03081235,-0.00035913,0.00008983,-0.06687541,0.
 00006880,0.00336045,-0.07867307,0.00037135,0.00029109,-0.09149620,0.00
 015473,0.00006012,-0.00126463,-0.00075146,-0.00385948,0.23259347,-0.26
 770977,-0.07748555,0.00840110,0.00680915,-0.01116146,-0.00034698,0.001
 60618,0.00282573,-0.00017673,0.00007980,-0.00084348,-0.00004214,-0.078
 17451,-0.00193014,0.00143208,0.62451989,-0.10622314,-0.16035201,0.0045
 0263,0.00411766,-0.00518019,0.00006470,0.00418211,-0.00279034,-0.00004
 851,0.00103818,0.00105254,-0.00001916,0.00711763,0.02689543,-0.0001446
 5,-0.06700330,0.69057206,0.00030498,-0.00227325,-0.01060804,-0.0012859
 4,-0.00205123,-0.00303855,-0.00039683,0.00057395,0.00245617,-0.0000829
 4,-0.00003205,0.00045629,-0.00071209,0.00294646,0.00310921,0.02868319,
 0.01539070,0.02050683,-0.00071700,0.00131122,0.00208405,-0.00311427,-0
 .00279379,0.00373122,-0.04816048,0.00508969,0.00657701,-0.00118153,0.0
 1753788,0.02421664,0.00364700,-0.01547146,-0.02673576,-0.00069264,-0.0
 0027503,0.00056826,0.05335661,0.00165916,0.00104510,0.00142892,-0.0035
 5319,-0.00136564,0.00261713,0.00589576,-0.13674360,-0.12961500,0.00082
 515,-0.00993251,-0.01286034,0.00073475,-0.01613061,-0.01866941,-0.0007
 6738,-0.00021035,0.00048158,-0.00697592,0.15125436,0.00007099,0.000655
 30,0.00072922,0.00017585,0.00173788,-0.00079467,0.00746906,-0.12812135
 ,-0.21640306,0.00071443,0.00164237,0.00214861,0.00069571,-0.00046170,0
 .00029213,-0.00064554,-0.00004027,0.00002363,-0.00900011,0.13983621,0.
 23415429,-0.00076301,0.00127941,-0.00228359,-0.00319139,-0.00289975,-0
 .00371991,-0.04832634,0.00606327,-0.00774749,-0.00132193,0.01759259,-0
 .02412702,0.00393096,-0.01550516,0.02666651,-0.00062907,-0.00023053,-0
 .00009466,-0.00040446,0.00000929,0.00001496,0.05351266,0.00164003,0.00
 106181,-0.00145000,-0.00361063,-0.00141217,-0.00252596,0.00678549,-0.1
 3785213,0.12993781,0.00088738,-0.00995207,0.01280603,0.00095104,-0.016
 16738,0.01853209,-0.00068965,-0.00018887,-0.00043256,-0.00008997,0.012
 16978,-0.01588636,-0.00794750,0.15245437,-0.00001632,-0.00067020,0.000
 74939,-0.00016389,-0.00171106,-0.00073907,-0.00850637,0.12853500,-0.21
 540127,-0.00069622,-0.00180758,0.00235094,-0.00080560,0.00044675,0.000
 15644,0.00057165,0.00001326,-0.00002562,-0.00015590,0.01602524,-0.0221
 7625,0.01021927,-0.14019508,0.23303610,-0.00285200,-0.00075914,0.00002
 816,0.00008433,-0.00011652,-0.00000299,-0.02166458,-0.01716744,0.00004
 284,-0.22111478,-0.13086362,0.00029996,-0.00106534,0.00460898,0.000014
 93,0.00007738,0.00044796,-0.00001066,0.00085230,-0.00026159,0.00051673
 ,0.00084150,-0.00025589,-0.00052565,0.24165137,0.00162232,0.00097825,-
 0.00002494,-0.00105081,0.00149686,0.00000120,0.01797882,0.01270283,-0.
 00003713,-0.13315560,-0.14696132,0.00023322,0.00272323,-0.00481159,-0.
 00000357,0.00018425,-0.00027277,0.00002018,-0.00091919,0.00071676,-0.0
 0014971,-0.00091698,0.00071390,0.00016015,0.14158313,0.15741323,0.0000
 1510,0.00000335,0.00013436,0.00001013,-0.00000425,0.00036621,0.0000791
 6,0.00007839,-0.00135613,0.00029538,0.00022097,-0.04835291,0.00001698,
 -0.00000385,0.00049803,-0.00000213,-0.00000197,0.00001123,0.00016479,0
 .00035396,0.00001921,-0.00017027,-0.00034760,0.00002186,-0.00035459,-0
 .00023229,0.04623986,0.00022213,-0.00056788,0.00029672,0.00015233,-0.0
 0146678,0.00047311,-0.00236505,0.01752863,-0.02482026,-0.04736544,0.00
 375783,-0.00506678,0.00083830,0.00273378,-0.00134908,0.00006411,-0.000
 04198,0.00006867,0.00123578,-0.00050863,0.00029821,-0.00500978,0.00276
 035,0.00040721,0.00174519,-0.01413990,0.02235330,0.05152230,0.00035131
 ,0.00004578,-0.00007093,-0.00008174,0.00064833,-0.00016269,0.00149361,
 -0.01170341,0.01478170,0.00544430,-0.14064977,0.12972664,-0.00106184,-
 0.00044242,-0.00013634,-0.00009082,-0.00002764,-0.00004104,-0.00058411
 ,0.00006600,0.00002414,0.00313868,-0.00090942,-0.00075080,0.00148901,-
 0.01105162,0.01493172,-0.00929775,0.15162121,-0.00001936,-0.00050809,-
 0.00011407,0.00058605,-0.00114784,0.00027198,-0.00055011,-0.00186096,0
 .00195644,-0.00760391,0.13004726,-0.22805597,0.00031596,0.00209238,0.0
 0001400,-0.00002909,0.00001876,0.00000973,-0.00056840,0.00001250,0.000
 62376,0.00070435,-0.00045354,0.00137674,0.00073817,-0.00179292,0.00117
 675,0.00697152,-0.14240389,0.24357349,0.00019912,-0.00055569,-0.000289
 53,0.00015929,-0.00145167,-0.00046150,-0.00222832,0.01744308,0.0249025
 2,-0.04730243,0.00296982,0.00402348,0.00086736,0.00271237,0.00133021,0
 .00008445,-0.00003012,-0.00008427,-0.00501267,0.00276582,-0.00035417,0
 .00123707,-0.00050987,-0.00030427,0.00160951,-0.01405244,-0.02240910,-
 0.00099564,-0.00083586,-0.00051527,0.05144194,0.00034999,0.00004520,0.
 00006249,-0.00004722,0.00065050,0.00014536,0.00139672,-0.01163839,-0.0
 1482350,0.00463110,-0.13970647,-0.12939326,-0.00106548,-0.00043477,0.0
 0015543,-0.00009393,-0.00003195,0.00003342,0.00315059,-0.00091112,0.00
 072296,-0.00058641,0.00006296,-0.00001921,0.00139746,-0.01101160,-0.01
 499584,-0.00074101,0.01237781,0.01601681,-0.00843112,0.15056822,0.0000
 2190,0.00050885,-0.00012792,-0.00056529,0.00116534,0.00028435,0.000568
 81,0.00171619,0.00176553,0.00653218,-0.12970993,-0.22896971,-0.0003232
 1,-0.00210522,0.00002059,0.00003335,-0.00001990,0.00001141,-0.00065082
 ,0.00042851,0.00138712,0.00056617,-0.00001646,0.00062014,-0.00073415,0
 .00182753,0.00125419,0.00038789,-0.01591517,-0.02082502,-0.00586502,0.
 14209970,0.24458140,-0.00916515,-0.03404501,-0.00425491,-0.00209267,0.
 00409962,0.00001060,-0.00022400,0.00058204,0.00012131,-0.00006952,-0.0
 0002407,0.00002053,0.00398456,-0.00716288,-0.00007317,-0.05597126,0.00
 931029,-0.00078164,0.00015639,0.00014278,0.00006372,0.00014383,0.00008
 606,-0.00004613,-0.00002430,0.00004082,-0.00000072,-0.00005478,0.00001
 939,-0.00002020,-0.00006213,0.00001966,0.00001756,0.05689483,-0.007508
 01,-0.00925681,-0.00224181,0.00380770,0.00076488,0.00010448,-0.0002260
 9,0.00001942,-0.00006779,0.00001986,-0.00002949,0.00001404,0.00287739,
 -0.00265424,0.00031269,-0.00613121,-0.35979950,-0.03457882,0.00000370,
 0.00000269,0.00006665,0.00000943,0.00000651,-0.00005853,-0.00001898,0.
 00001599,-0.00000142,-0.00000881,0.00001515,-0.00000420,-0.00001511,0.
 00002116,0.00000619,0.00996323,0.37438433,0.00003939,0.00341682,0.0019
 3849,0.00044805,0.00118157,-0.00071140,0.00004312,-0.00003824,-0.00011
 498,-0.00000002,-0.00001598,-0.00000250,0.00019532,-0.00190825,-0.0003
 3907,-0.00228086,-0.04610749,-0.00692055,-0.00014400,-0.00004054,0.000
 00029,0.00003135,0.00003473,0.00001743,-0.00000812,0.00000263,-0.00000
 055,-0.00001366,0.00000466,-0.00000418,0.00001485,-0.00000200,0.000001
 76,0.00166144,0.03902066,0.00644739,-0.03175808,0.01623797,-0.00283606
 ,0.00112688,0.00189976,0.00001034,-0.00085128,0.00113527,0.00014343,-0
 .00025675,-0.00042196,0.00001953,0.00072212,-0.00743848,-0.00077001,-0
 .23006371,0.14759027,-0.02617606,0.00003497,0.00003399,-0.00001984,-0.
 00002004,-0.00000685,0.00002223,-0.00014057,0.00010234,0.00000196,0.00
 001056,0.00001582,-0.00000971,0.00000245,0.00001964,0.00001065,0.00648
 422,-0.00277309,0.00001314,0.25470925,-0.02334484,0.01480631,-0.002031
 48,0.00196147,0.00303450,-0.00003488,-0.00068758,0.00074449,0.00011508
 ,-0.00016440,-0.00023063,0.00000941,-0.00143457,-0.00654226,0.00001174
 ,0.16318694,-0.18966641,0.01996267,0.00001638,0.00003914,-0.00002612,-
 0.00000636,0.00001272,0.00003207,-0.00008337,0.00007108,-0.00000117,-0
 .00000785,0.00001000,-0.00001627,-0.00000922,0.00000846,0.00001437,0.0
 1696809,-0.00349010,0.00445142,-0.15639468,0.18120269,0.00132261,-0.00
 063127,-0.00316105,0.00043109,0.00077874,0.00003105,0.00010075,-0.0001
 6474,0.00031415,0.00002292,-0.00000344,0.00000648,0.00099460,-0.001315
 64,0.00196450,-0.03559791,0.02639188,-0.00599174,-0.00008697,0.0000012
 5,-0.00000428,-0.00005968,-0.00000310,0.00001317,-0.00000462,-0.000004
 35,-0.00001212,-0.00000685,0.00001199,-0.00000364,0.00001206,-0.000002
 34,-0.00000386,0.00328160,-0.00257213,-0.00031213,0.02959039,-0.022486
 84,0.00715948\\0.00000014,-0.00000029,-0.00000035,0.,0.00000003,0.0000
 0068,-0.00000012,0.00000003,-0.00000026,-0.00000003,0.00000013,0.00000
 023,0.00000015,0.00000031,0.00000009,-0.00000014,-0.00000014,-0.000000
 07,-0.00000011,0.00000042,-0.00000065,-0.00000002,-0.00000044,-0.00000
 055,-0.00000002,0.00000013,-0.00000006,0.,0.00000055,0.00000053,0.0000
 0010,-0.00000033,0.00000053,0.00000007,-0.00000018,0.00000038,-0.00000
 001,-0.00000022,-0.00000049\\\@


 EVERYBODY NEEDS BEAUTY AS WELL AS BREAD, PLACES TO PLAY IN AND PRAY IN,
 WHERE NATURE MAY HEAL AND CHEER AND GIVE STRENGTH TO BODY AND SOUL ALIKE.

                                    -- JOHN MUIR
 Job cpu time:       0 days  1 hours 45 minutes 37.7 seconds.
 Elapsed time:       0 days  0 hours  5 minutes 17.4 seconds.
 File lengths (MBytes):  RWF=   1392 Int=      0 D2E=      0 Chk=     32 Scr=     32
 Normal termination of Gaussian 16 at Mon Mar 11 15:58:36 2019.
