 Entering Gaussian System, Link 0=g16
 Input=DHVSQGCGLGSLDF-UHFFFAOYSA-N-u4_GeoFreq_a1.com
 Output=DHVSQGCGLGSLDF-UHFFFAOYSA-N-u4_GeoFreq_a1.log
 Initial command:
 /shared/centos7/gaussian/g16/l1.exe "/scratch/underkoffler.c/gaussian_scratch/Gau-1759.inp" -scrdir="/scratch/underkoffler.c/gaussian_scratch/"
 Entering Link 1 = /shared/centos7/gaussian/g16/l1.exe PID=      1760.
  
 Copyright (c) 1988,1990,1992,1993,1995,1998,2003,2009,2016,
            Gaussian, Inc.  All Rights Reserved.
  
 This is part of the Gaussian(R) 16 program.  It is based on
 the Gaussian(R) 09 system (copyright 2009, Gaussian, Inc.),
 the Gaussian(R) 03 system (copyright 2003, Gaussian, Inc.),
 the Gaussian(R) 98 system (copyright 1998, Gaussian, Inc.),
 the Gaussian(R) 94 system (copyright 1995, Gaussian, Inc.),
 the Gaussian 92(TM) system (copyright 1992, Gaussian, Inc.),
 the Gaussian 90(TM) system (copyright 1990, Gaussian, Inc.),
 the Gaussian 88(TM) system (copyright 1988, Gaussian, Inc.),
 the Gaussian 86(TM) system (copyright 1986, Carnegie Mellon
 University), and the Gaussian 82(TM) system (copyright 1983,
 Carnegie Mellon University). Gaussian is a federally registered
 trademark of Gaussian, Inc.
  
 This software contains proprietary and confidential information,
 including trade secrets, belonging to Gaussian, Inc.
  
 This software is provided under written license and may be
 used, copied, transmitted, or stored only in accord with that
 written license.
  
 The following legend is applicable only to US Government
 contracts under FAR:
  
                    RESTRICTED RIGHTS LEGEND
  
 Use, reproduction and disclosure by the US Government is
 subject to restrictions as set forth in subparagraphs (a)
 and (c) of the Commercial Computer Software - Restricted
 Rights clause in FAR 52.227-19.
  
 Gaussian, Inc.
 340 Quinnipiac St., Bldg. 40, Wallingford CT 06492
  
  
 ---------------------------------------------------------------
 Warning -- This program may not be used in any manner that
 competes with the business of Gaussian, Inc. or will provide
 assistance to any competitor of Gaussian, Inc.  The licensee
 of this program is prohibited from giving any competitor of
 Gaussian, Inc. access to this program.  By using this program,
 the user acknowledges that Gaussian, Inc. is engaged in the
 business of creating and licensing software in the field of
 computational chemistry and represents and warrants to the
 licensee that it is not a competitor of Gaussian, Inc. and that
 it will not use this program in any manner prohibited above.
 ---------------------------------------------------------------
  

 Cite this work as:
 Gaussian 16, Revision A.03,
 M. J. Frisch, G. W. Trucks, H. B. Schlegel, G. E. Scuseria, 
 M. A. Robb, J. R. Cheeseman, G. Scalmani, V. Barone, 
 G. A. Petersson, H. Nakatsuji, X. Li, M. Caricato, A. V. Marenich, 
 J. Bloino, B. G. Janesko, R. Gomperts, B. Mennucci, H. P. Hratchian, 
 J. V. Ortiz, A. F. Izmaylov, J. L. Sonnenberg, D. Williams-Young, 
 F. Ding, F. Lipparini, F. Egidi, J. Goings, B. Peng, A. Petrone, 
 T. Henderson, D. Ranasinghe, V. G. Zakrzewski, J. Gao, N. Rega, 
 G. Zheng, W. Liang, M. Hada, M. Ehara, K. Toyota, R. Fukuda, 
 J. Hasegawa, M. Ishida, T. Nakajima, Y. Honda, O. Kitao, H. Nakai, 
 T. Vreven, K. Throssell, J. A. Montgomery, Jr., J. E. Peralta, 
 F. Ogliaro, M. J. Bearpark, J. J. Heyd, E. N. Brothers, K. N. Kudin, 
 V. N. Staroverov, T. A. Keith, R. Kobayashi, J. Normand, 
 K. Raghavachari, A. P. Rendell, J. C. Burant, S. S. Iyengar, 
 J. Tomasi, M. Cossi, J. M. Millam, M. Klene, C. Adamo, R. Cammi, 
 J. W. Ochterski, R. L. Martin, K. Morokuma, O. Farkas, 
 J. B. Foresman, and D. J. Fox, Gaussian, Inc., Wallingford CT, 2016.
 
 ******************************************
 Gaussian 16:  EM64L-G16RevA.03 25-Dec-2016
                 6-Mar-2019 
 ******************************************
 ----------------------------------------------------------------------
 #p m062x/6-311+g(2df,2p) opt=(calcfc,verytight,gdiis,maxcycles=900) fr
 eq iop(7/33=1,2/16=3)
 ----------------------------------------------------------------------

 Warning!  Use of Opt=GDIIS is deprecated since it is seldom a good choice.

 1/6=900,7=1,10=4,18=20,19=11,26=3,38=1/1,3;
 2/9=110,12=2,16=3,17=6,18=5,40=1/2;
 3/5=4,6=6,7=214,11=2,25=1,30=1,71=2,74=-55,140=1/1,2,3;
 4//1;
 5/5=2,38=5/2;
 8/6=4,10=90,11=11/1;
 11/6=1,8=1,9=11,15=111,16=1/1,2,10;
 10/6=1,13=1/2;
 6/7=2,8=2,9=2,10=2,28=1/1;
 7/10=1,18=20,25=1,33=1/1,2,3,16;
 1/6=900,7=1,10=4,18=20,19=11,26=3/3(2);
 2/9=110,16=3/2;
 99//99;
 2/9=110,16=3/2;
 3/5=4,6=6,7=214,11=2,25=1,30=1,71=1,74=-55/1,2,3;
 4/5=5,16=3,69=1/1;
 5/5=2,38=5/2;
 7/33=1/1,2,3,16;
 1/6=900,7=1,18=20,19=11,26=3/3(-5);
 2/9=110,16=3/2;
 6/7=2,8=2,9=2,10=2,19=2,28=1/1;
 99/9=1/99;
 Leave Link    1 at Wed Mar  6 23:41:04 2019, MaxMem=           0 cpu:               0.2 elap:               1.5
 (Enter /shared/centos7/gaussian/g16/l101.exe)
 ------------------------------
 Gaussian input prepared by ASE
 ------------------------------
 Symbolic Z-matrix:
 Charge =  0 Multiplicity = 2
 O                     1.516    -6.49931  -13.7181 
 C                     2.23835  -5.86817  -11.1471 
 C                     3.22559  -5.62338  -12.24705 
 C                     2.06644  -7.31173  -10.78775 
 C                     2.86636  -6.29513  -13.53251 
 H                     2.54787  -5.32075  -10.2259 
 H                     1.25473  -5.48031  -11.48914 
 H                     4.24832  -5.91879  -11.9247 
 H                     3.26425  -4.51634  -12.40776 
 H                     3.09202  -7.70457  -10.56984 
 H                     1.38912  -7.4918   -9.94289 
 H                     1.71875  -7.85178  -11.70179 
 H                     3.36482  -5.76198  -14.35656 
 H                     0.98604  -6.53002  -12.89033 
 
 ITRead=  0  0  0  0  0  0  0  0  0  0  0  0  0  0
 MicOpt= -1 -1 -1 -1 -1 -1 -1 -1 -1 -1 -1 -1 -1 -1
 NAtoms=     14 NQM=       14 NQMF=       0 NMMI=      0 NMMIF=      0
                NMic=       0 NMicF=      0.
                    Isotopes and Nuclear Properties:
 (Nuclear quadrupole moments (NQMom) in fm**2, nuclear magnetic moments (NMagM)
  in nuclear magnetons)

  Atom         1           2           3           4           5           6           7           8           9          10
 IAtWgt=          16          12          12          12          12           1           1           1           1           1
 AtmWgt=  15.9949146  12.0000000  12.0000000  12.0000000  12.0000000   1.0078250   1.0078250   1.0078250   1.0078250   1.0078250
 NucSpn=           0           0           0           0           0           1           1           1           1           1
 AtZEff=  -0.0000000  -0.0000000  -0.0000000  -0.0000000  -0.0000000  -0.0000000  -0.0000000  -0.0000000  -0.0000000  -0.0000000
 NQMom=    0.0000000   0.0000000   0.0000000   0.0000000   0.0000000   0.0000000   0.0000000   0.0000000   0.0000000   0.0000000
 NMagM=    0.0000000   0.0000000   0.0000000   0.0000000   0.0000000   2.7928460   2.7928460   2.7928460   2.7928460   2.7928460
 AtZNuc=   8.0000000   6.0000000   6.0000000   6.0000000   6.0000000   1.0000000   1.0000000   1.0000000   1.0000000   1.0000000

  Atom        11          12          13          14
 IAtWgt=           1           1           1           1
 AtmWgt=   1.0078250   1.0078250   1.0078250   1.0078250
 NucSpn=           1           1           1           1
 AtZEff=  -0.0000000  -0.0000000  -0.0000000  -0.0000000
 NQMom=    0.0000000   0.0000000   0.0000000   0.0000000
 NMagM=    2.7928460   2.7928460   2.7928460   2.7928460
 AtZNuc=   1.0000000   1.0000000   1.0000000   1.0000000
 Leave Link  101 at Wed Mar  6 23:41:05 2019, MaxMem=   104857600 cpu:               0.2 elap:               0.3
 (Enter /shared/centos7/gaussian/g16/l103.exe)

 GradGradGradGradGradGradGradGradGradGradGradGradGradGradGradGradGradGrad
 Berny optimization.
 Initialization pass.
                           ----------------------------
                           !    Initial Parameters    !
                           ! (Angstroms and Degrees)  !
 --------------------------                            --------------------------
 ! Name  Definition              Value          Derivative Info.                !
 --------------------------------------------------------------------------------
 ! R1    R(1,5)                  1.3783         calculate D2E/DX2 analytically  !
 ! R2    R(1,14)                 0.9834         calculate D2E/DX2 analytically  !
 ! R3    R(2,3)                  1.4982         calculate D2E/DX2 analytically  !
 ! R4    R(2,4)                  1.4975         calculate D2E/DX2 analytically  !
 ! R5    R(2,6)                  1.1154         calculate D2E/DX2 analytically  !
 ! R6    R(2,7)                  1.1113         calculate D2E/DX2 analytically  !
 ! R7    R(3,5)                  1.4942         calculate D2E/DX2 analytically  !
 ! R8    R(3,8)                  1.1123         calculate D2E/DX2 analytically  !
 ! R9    R(3,9)                  1.1193         calculate D2E/DX2 analytically  !
 ! R10   R(4,10)                 1.1197         calculate D2E/DX2 analytically  !
 ! R11   R(4,11)                 1.0977         calculate D2E/DX2 analytically  !
 ! R12   R(4,12)                 1.1171         calculate D2E/DX2 analytically  !
 ! R13   R(5,13)                 1.1008         calculate D2E/DX2 analytically  !
 ! A1    A(5,1,14)             114.7897         calculate D2E/DX2 analytically  !
 ! A2    A(3,2,4)              114.1635         calculate D2E/DX2 analytically  !
 ! A3    A(3,2,6)              110.0795         calculate D2E/DX2 analytically  !
 ! A4    A(3,2,7)              107.4736         calculate D2E/DX2 analytically  !
 ! A5    A(4,2,6)              107.8651         calculate D2E/DX2 analytically  !
 ! A6    A(4,2,7)              107.9807         calculate D2E/DX2 analytically  !
 ! A7    A(6,2,7)              109.1795         calculate D2E/DX2 analytically  !
 ! A8    A(2,3,5)              113.562          calculate D2E/DX2 analytically  !
 ! A9    A(2,3,8)              110.4714         calculate D2E/DX2 analytically  !
 ! A10   A(2,3,9)              106.8447         calculate D2E/DX2 analytically  !
 ! A11   A(5,3,8)              110.5475         calculate D2E/DX2 analytically  !
 ! A12   A(5,3,9)              109.234          calculate D2E/DX2 analytically  !
 ! A13   A(8,3,9)              105.815          calculate D2E/DX2 analytically  !
 ! A14   A(2,4,10)             106.2467         calculate D2E/DX2 analytically  !
 ! A15   A(2,4,11)             114.4349         calculate D2E/DX2 analytically  !
 ! A16   A(2,4,12)             107.7821         calculate D2E/DX2 analytically  !
 ! A17   A(10,4,11)            110.9671         calculate D2E/DX2 analytically  !
 ! A18   A(10,4,12)            105.9446         calculate D2E/DX2 analytically  !
 ! A19   A(11,4,12)            111.0007         calculate D2E/DX2 analytically  !
 ! A20   A(1,5,3)              114.7079         calculate D2E/DX2 analytically  !
 ! A21   A(1,5,13)             114.494          calculate D2E/DX2 analytically  !
 ! A22   A(3,5,13)             108.506          calculate D2E/DX2 analytically  !
 ! D1    D(14,1,5,3)           -23.5891         calculate D2E/DX2 analytically  !
 ! D2    D(14,1,5,13)         -150.0            calculate D2E/DX2 analytically  !
 ! D3    D(4,2,3,5)             60.0            calculate D2E/DX2 analytically  !
 ! D4    D(4,2,3,8)            -64.8564         calculate D2E/DX2 analytically  !
 ! D5    D(4,2,3,9)           -179.5            calculate D2E/DX2 analytically  !
 ! D6    D(6,2,3,5)           -178.5336         calculate D2E/DX2 analytically  !
 ! D7    D(6,2,3,8)             56.61           calculate D2E/DX2 analytically  !
 ! D8    D(6,2,3,9)            -58.0336         calculate D2E/DX2 analytically  !
 ! D9    D(7,2,3,5)            -59.7318         calculate D2E/DX2 analytically  !
 ! D10   D(7,2,3,8)            175.4118         calculate D2E/DX2 analytically  !
 ! D11   D(7,2,3,9)             60.7682         calculate D2E/DX2 analytically  !
 ! D12   D(3,2,4,10)            53.7542         calculate D2E/DX2 analytically  !
 ! D13   D(3,2,4,11)           176.5596         calculate D2E/DX2 analytically  !
 ! D14   D(3,2,4,12)           -59.4464         calculate D2E/DX2 analytically  !
 ! D15   D(6,2,4,10)           -68.9271         calculate D2E/DX2 analytically  !
 ! D16   D(6,2,4,11)            53.8783         calculate D2E/DX2 analytically  !
 ! D17   D(6,2,4,12)           177.8723         calculate D2E/DX2 analytically  !
 ! D18   D(7,2,4,10)           173.2005         calculate D2E/DX2 analytically  !
 ! D19   D(7,2,4,11)           -63.994          calculate D2E/DX2 analytically  !
 ! D20   D(7,2,4,12)            60.0            calculate D2E/DX2 analytically  !
 ! D21   D(2,3,5,1)             27.5835         calculate D2E/DX2 analytically  !
 ! D22   D(2,3,5,13)           157.0236         calculate D2E/DX2 analytically  !
 ! D23   D(8,3,5,1)            152.3989         calculate D2E/DX2 analytically  !
 ! D24   D(8,3,5,13)           -78.161          calculate D2E/DX2 analytically  !
 ! D25   D(9,3,5,1)            -91.5588         calculate D2E/DX2 analytically  !
 ! D26   D(9,3,5,13)            37.8813         calculate D2E/DX2 analytically  !
 --------------------------------------------------------------------------------
 Trust Radius=3.00D-01 FncErr=1.00D-07 GrdErr=1.00D-06 EigMax=2.50D+02 EigMin=1.00D-04
 Number of steps in this run=    100 maximum allowed number of steps=    100.
 GradGradGradGradGradGradGradGradGradGradGradGradGradGradGradGradGradGrad

 Leave Link  103 at Wed Mar  6 23:41:05 2019, MaxMem=   104857600 cpu:               0.1 elap:               0.1
 (Enter /shared/centos7/gaussian/g16/l202.exe)
                          Input orientation:                          
 ---------------------------------------------------------------------
 Center     Atomic      Atomic             Coordinates (Angstroms)
 Number     Number       Type             X           Y           Z
 ---------------------------------------------------------------------
      1          8           0        1.516002   -6.499311  -13.718104
      2          6           0        2.238348   -5.868173  -11.147104
      3          6           0        3.225592   -5.623377  -12.247055
      4          6           0        2.066439   -7.311727  -10.787754
      5          6           0        2.866359   -6.295125  -13.532512
      6          1           0        2.547867   -5.320750  -10.225901
      7          1           0        1.254731   -5.480314  -11.489140
      8          1           0        4.248317   -5.918789  -11.924700
      9          1           0        3.264252   -4.516336  -12.407756
     10          1           0        3.092023   -7.704574  -10.569841
     11          1           0        1.389117   -7.491804   -9.942892
     12          1           0        1.718748   -7.851781  -11.701791
     13          1           0        3.364820   -5.761980  -14.356563
     14          1           0        0.986041   -6.530021  -12.890326
 ---------------------------------------------------------------------
                    Distance matrix (angstroms):
                    1          2          3          4          5
     1  O    0.000000
     2  C    2.744113   0.000000
     3  C    2.419492   1.498155   0.000000
     4  C    3.090299   1.497509   2.514700   0.000000
     5  C    1.378260   2.503370   1.494220   3.034312   0.000000
     6  H    3.827431   1.115387   2.153127   2.124015   3.461867
     7  H    2.464730   1.111271   2.116410   2.122471   2.727018
     8  H    3.319465   2.155735   1.112271   2.827280   2.153253
     9  H    2.950522   2.114045   1.119312   3.445775   2.141842
    10  H    3.721298   2.105792   2.676241   1.119659   3.288600
    11  H    3.905556   2.192601   3.488958   1.097719   4.061978
    12  H    2.436349   2.124232   2.744754   1.117144   2.663030
    13  H    2.090314   3.403064   2.118637   4.101695   1.100802
    14  H    0.983371   2.246139   2.500278   2.489806   2.000794
                    6          7          8          9         10
     6  H    0.000000
     7  H    1.814782   0.000000
     8  H    2.476913   3.056718   0.000000
     9  H    2.433265   2.410660   1.780056   0.000000
    10  H    2.469213   3.027884   2.522238   3.684081   0.000000
    11  H    2.477150   2.540676   3.817979   4.294776   1.827081
    12  H    3.044964   2.425775   3.191374   3.743282   1.785740
    13  H    4.233730   3.571263   2.592126   2.315079   4.264663
    14  H    3.316745   1.771270   3.456658   3.078643   3.346548
                   11         12         13         14
    11  H    0.000000
    12  H    1.825367   0.000000
    13  H    5.135775   3.758275   0.000000
    14  H    3.126478   1.922635   2.897987   0.000000
 Stoichiometry    C4H9O(2)
 Framework group  C1[X(C4H9O)]
 Deg. of freedom    36
 Full point group                 C1      NOp   1
 Largest Abelian subgroup         C1      NOp   1
 Largest concise Abelian subgroup C1      NOp   1
                         Standard orientation:                         
 ---------------------------------------------------------------------
 Center     Atomic      Atomic             Coordinates (Angstroms)
 Number     Number       Type             X           Y           Z
 ---------------------------------------------------------------------
      1          8           0       -1.391758   -0.968620    0.244082
      2          6           0        0.986319    0.369236    0.535719
      3          6           0       -0.178732    1.103462   -0.054228
      4          6           0        1.613919   -0.628155   -0.388328
      5          6           0       -1.301712    0.208458   -0.467241
      6          1           0        1.776739    1.092088    0.846862
      7          1           0        0.618067   -0.176724    1.430841
      8          1           0        0.151469    1.734994   -0.908208
      9          1           0       -0.543495    1.815490    0.728602
     10          1           0        1.859543   -0.072549   -1.328863
     11          1           0        2.504054   -1.125959    0.017673
     12          1           0        0.830702   -1.374004   -0.668133
     13          1           0       -2.229743    0.800070   -0.490038
     14          1           0       -0.552037   -1.262444    0.663074
 ---------------------------------------------------------------------
 Rotational constants (GHZ):           7.7518283           3.8803668           3.0894030
 Leave Link  202 at Wed Mar  6 23:41:05 2019, MaxMem=   104857600 cpu:               0.0 elap:               0.0
 (Enter /shared/centos7/gaussian/g16/l301.exe)
 Standard basis: 6-311+G(2df,2p) (5D, 7F)
 Ernie: Thresh=  0.10000D-02 Tol=  0.10000D-05 Strict=F.
 There are   276 symmetry adapted cartesian basis functions of A   symmetry.
 There are   251 symmetry adapted basis functions of A   symmetry.
   251 basis functions,   359 primitive gaussians,   276 cartesian basis functions
    21 alpha electrons       20 beta electrons
       nuclear repulsion energy       187.2005305624 Hartrees.
 IExCor= 4336 DFT=T Ex+Corr=M062X ExCW=0 ScaHFX=  0.540000
 ScaDFX=  1.000000  1.000000  1.000000  1.000000 ScalE2=  1.000000  1.000000
 IRadAn=      5 IRanWt=     -1 IRanGd=            0 ICorTp=0 IEmpDi=  4
 NAtoms=   14 NActive=   14 NUniq=   14 SFac= 1.00D+00 NAtFMM=   60 NAOKFM=F Big=F
 Integral buffers will be    131072 words long.
 Raffenetti 2 integral format.
 Two-electron integral symmetry is turned on.
 Leave Link  301 at Wed Mar  6 23:41:05 2019, MaxMem=   104857600 cpu:               0.1 elap:               0.1
 (Enter /shared/centos7/gaussian/g16/l302.exe)
 NPDir=0 NMtPBC=     1 NCelOv=     1 NCel=       1 NClECP=     1 NCelD=      1
         NCelK=      1 NCelE2=     1 NClLst=     1 CellRange=     0.0.
 One-electron integrals computed using PRISM.
 One-electron integral symmetry used in STVInt
 NBasis=   251 RedAO= T EigKep=  3.94D-05  NBF=   251
 NBsUse=   251 1.00D-06 EigRej= -1.00D+00 NBFU=   251
 Precomputing XC quadrature grid using
 IXCGrd= 4 IRadAn=           5 IRanWt=          -1 IRanGd=           0 AccXCQ= 0.00D+00.
 Generated NRdTot=       0 NPtTot=           0 NUsed=           0 NTot=          32
 NSgBfM=   276   276   276   276   276 MxSgAt=    14 MxSgA2=    14.
 Leave Link  302 at Wed Mar  6 23:41:05 2019, MaxMem=   104857600 cpu:               0.6 elap:               0.6
 (Enter /shared/centos7/gaussian/g16/l303.exe)
 DipDrv:  MaxL=1.
 Leave Link  303 at Wed Mar  6 23:41:06 2019, MaxMem=   104857600 cpu:               0.1 elap:               0.2
 (Enter /shared/centos7/gaussian/g16/l401.exe)
 ExpMin= 4.38D-02 ExpMax= 8.59D+03 ExpMxC= 1.30D+03 IAcc=3 IRadAn=         5 AccDes= 0.00D+00
 Harris functional with IExCor= 1009 and IRadAn=       5 diagonalized for initial guess.
 HarFok:  IExCor= 1009 AccDes= 0.00D+00 IRadAn=         5 IDoV= 1 UseB2=F ITyADJ=14
 ICtDFT=  3500011 ScaDFX=  1.000000  1.000000  1.000000  1.000000
 FoFCou: FMM=F IPFlag=           0 FMFlag=      100000 FMFlg1=           0
         NFxFlg=           0 DoJE=T BraDBF=F KetDBF=T FulRan=T
         wScrn=  0.000000 ICntrl=       500 IOpCl=  0 I1Cent=   200000004 NGrid=           0
         NMat0=    1 NMatS0=      1 NMatT0=    0 NMatD0=    1 NMtDS0=    0 NMtDT0=    0
 Petite list used in FoFCou.
 Harris En= -232.881536846844    
 JPrj=0 DoOrth=F DoCkMO=F.
 Initial guess <Sx>= 0.0000 <Sy>= 0.0000 <Sz>= 0.5000 <S**2>= 0.7500 S= 0.5000
 Leave Link  401 at Wed Mar  6 23:41:14 2019, MaxMem=   104857600 cpu:               8.0 elap:               8.0
 (Enter /shared/centos7/gaussian/g16/l502.exe)
 Integral symmetry usage will be decided dynamically.
 UHF open shell SCF:
 Using DIIS extrapolation, IDIIS=  1040.
 NGot=   104857600 LenX=   104700994 LenY=   104624377
 Requested convergence on RMS density matrix=1.00D-08 within 128 cycles.
 Requested convergence on MAX density matrix=1.00D-06.
 Requested convergence on             energy=1.00D-06.
 No special actions if energy rises.
 Fock matrices will be formed incrementally for  20 cycles.

 Cycle   1  Pass 1  IDiag  1:
 FoFJK:  IHMeth= 1 ICntrl=       0 DoSepK=F KAlg= 0 I1Cent=           0 FoldK=F
 IRaf= 990000000 NMat=       1 IRICut=       1 DoRegI=T DoRafI=F ISym2E= 0 IDoP0=0 IntGTp=1.
 FoFCou: FMM=F IPFlag=           0 FMFlag=      100000 FMFlg1=           0
         NFxFlg=           0 DoJE=F BraDBF=F KetDBF=F FulRan=T
         wScrn=  0.000000 ICntrl=         0 IOpCl=  1 I1Cent=           0 NGrid=           0
         NMat0=    1 NMatS0=      1 NMatT0=    0 NMatD0=    1 NMtDS0=    0 NMtDT0=    0
 Symmetry not used in FoFCou.
 E= -232.760857546959    
 DIIS: error= 2.48D-02 at cycle   1 NSaved=   1.
 NSaved= 1 IEnMin= 1 EnMin= -232.760857546959     IErMin= 1 ErrMin= 2.48D-02
 ErrMax= 2.48D-02  0.00D+00 EMaxC= 1.00D-01 BMatC= 9.14D-01 BMatP= 9.14D-01
 IDIUse=3 WtCom= 7.52D-01 WtEn= 2.48D-01
 Coeff-Com:  0.100D+01
 Coeff-En:   0.100D+01
 Coeff:      0.100D+01
 Gap=     0.230 Goal=   None    Shift=    0.000
 Gap=     0.370 Goal=   None    Shift=    0.000
 GapD=    0.230 DampG=1.000 DampE=0.500 DampFc=0.5000 IDamp=-1.
 Damping current iteration by 5.00D-01
 RMSDP=2.68D-03 MaxDP=1.08D-01              OVMax= 1.50D-01

 Cycle   2  Pass 1  IDiag  1:
 RMSU=  1.31D-03    CP:  9.69D-01
 E= -232.858709661402     Delta-E=       -0.097852114443 Rises=F Damp=T
 DIIS: error= 5.36D-03 at cycle   2 NSaved=   2.
 NSaved= 2 IEnMin= 2 EnMin= -232.858709661402     IErMin= 2 ErrMin= 5.36D-03
 ErrMax= 5.36D-03  0.00D+00 EMaxC= 1.00D-01 BMatC= 5.57D-02 BMatP= 9.14D-01
 IDIUse=3 WtCom= 9.46D-01 WtEn= 5.36D-02
 Coeff-Com: -0.896D-01 0.109D+01
 Coeff-En:   0.000D+00 0.100D+01
 Coeff:     -0.848D-01 0.108D+01
 Gap=     0.250 Goal=   None    Shift=    0.000
 Gap=     0.411 Goal=   None    Shift=    0.000
 RMSDP=9.46D-04 MaxDP=2.85D-02 DE=-9.79D-02 OVMax= 8.21D-02

 Cycle   3  Pass 1  IDiag  1:
 RMSU=  9.42D-04    CP:  9.67D-01  1.07D+00
 E= -232.953926825586     Delta-E=       -0.095217164183 Rises=F Damp=F
 DIIS: error= 2.75D-03 at cycle   3 NSaved=   3.
 NSaved= 3 IEnMin= 3 EnMin= -232.953926825586     IErMin= 3 ErrMin= 2.75D-03
 ErrMax= 2.75D-03  0.00D+00 EMaxC= 1.00D-01 BMatC= 9.55D-03 BMatP= 5.57D-02
 IDIUse=3 WtCom= 9.72D-01 WtEn= 2.75D-02
 Coeff-Com: -0.736D-01 0.271D+00 0.802D+00
 Coeff-En:   0.000D+00 0.000D+00 0.100D+01
 Coeff:     -0.716D-01 0.264D+00 0.808D+00
 Gap=     0.250 Goal=   None    Shift=    0.000
 Gap=     0.370 Goal=   None    Shift=    0.000
 RMSDP=1.79D-04 MaxDP=6.71D-03 DE=-9.52D-02 OVMax= 1.12D-02

 Cycle   4  Pass 1  IDiag  1:
 RMSU=  1.63D-04    CP:  9.63D-01  1.11D+00  9.76D-01
 E= -232.955851296719     Delta-E=       -0.001924471134 Rises=F Damp=F
 DIIS: error= 7.34D-04 at cycle   4 NSaved=   4.
 NSaved= 4 IEnMin= 4 EnMin= -232.955851296719     IErMin= 4 ErrMin= 7.34D-04
 ErrMax= 7.34D-04  0.00D+00 EMaxC= 1.00D-01 BMatC= 1.33D-03 BMatP= 9.55D-03
 IDIUse=3 WtCom= 9.93D-01 WtEn= 7.34D-03
 Coeff-Com: -0.219D-01 0.495D-01 0.307D+00 0.666D+00
 Coeff-En:   0.000D+00 0.000D+00 0.000D+00 0.100D+01
 Coeff:     -0.217D-01 0.491D-01 0.305D+00 0.668D+00
 Gap=     0.249 Goal=   None    Shift=    0.000
 Gap=     0.370 Goal=   None    Shift=    0.000
 RMSDP=6.62D-05 MaxDP=3.03D-03 DE=-1.92D-03 OVMax= 7.32D-03

 Cycle   5  Pass 1  IDiag  1:
 RMSU=  5.81D-05    CP:  9.63D-01  1.11D+00  1.00D+00  8.67D-01
 E= -232.956163161630     Delta-E=       -0.000311864910 Rises=F Damp=F
 DIIS: error= 3.73D-04 at cycle   5 NSaved=   5.
 NSaved= 5 IEnMin= 5 EnMin= -232.956163161630     IErMin= 5 ErrMin= 3.73D-04
 ErrMax= 3.73D-04  0.00D+00 EMaxC= 1.00D-01 BMatC= 2.70D-04 BMatP= 1.33D-03
 IDIUse=3 WtCom= 9.96D-01 WtEn= 3.73D-03
 Coeff-Com: -0.203D-02-0.695D-02 0.432D-01 0.310D+00 0.656D+00
 Coeff-En:   0.000D+00 0.000D+00 0.000D+00 0.000D+00 0.100D+01
 Coeff:     -0.202D-02-0.692D-02 0.430D-01 0.309D+00 0.657D+00
 Gap=     0.250 Goal=   None    Shift=    0.000
 Gap=     0.371 Goal=   None    Shift=    0.000
 RMSDP=3.63D-05 MaxDP=1.38D-03 DE=-3.12D-04 OVMax= 2.57D-03

 Cycle   6  Pass 1  IDiag  1:
 RMSU=  3.20D-05    CP:  9.63D-01  1.11D+00  1.01D+00  9.37D-01  1.08D+00
 E= -232.956238429443     Delta-E=       -0.000075267813 Rises=F Damp=F
 DIIS: error= 1.59D-04 at cycle   6 NSaved=   6.
 NSaved= 6 IEnMin= 6 EnMin= -232.956238429443     IErMin= 6 ErrMin= 1.59D-04
 ErrMax= 1.59D-04  0.00D+00 EMaxC= 1.00D-01 BMatC= 2.80D-05 BMatP= 2.70D-04
 IDIUse=3 WtCom= 9.98D-01 WtEn= 1.59D-03
 Coeff-Com:  0.542D-02-0.131D-01-0.780D-01-0.110D+00 0.589D-02 0.119D+01
 Coeff-En:   0.000D+00 0.000D+00 0.000D+00 0.000D+00 0.000D+00 0.100D+01
 Coeff:      0.541D-02-0.131D-01-0.778D-01-0.109D+00 0.588D-02 0.119D+01
 Gap=     0.251 Goal=   None    Shift=    0.000
 Gap=     0.371 Goal=   None    Shift=    0.000
 RMSDP=2.65D-05 MaxDP=9.76D-04 DE=-7.53D-05 OVMax= 3.41D-03

 Cycle   7  Pass 1  IDiag  1:
 RMSU=  1.53D-05    CP:  9.63D-01  1.11D+00  1.01D+00  1.01D+00  1.31D+00
                    CP:  1.34D+00
 E= -232.956265212580     Delta-E=       -0.000026783137 Rises=F Damp=F
 DIIS: error= 5.37D-05 at cycle   7 NSaved=   7.
 NSaved= 7 IEnMin= 7 EnMin= -232.956265212580     IErMin= 7 ErrMin= 5.37D-05
 ErrMax= 5.37D-05  0.00D+00 EMaxC= 1.00D-01 BMatC= 7.77D-06 BMatP= 2.80D-05
 IDIUse=1 WtCom= 1.00D+00 WtEn= 0.00D+00
 Coeff-Com:  0.185D-02-0.280D-02-0.330D-01-0.843D-01-0.134D+00 0.428D+00
 Coeff-Com:  0.824D+00
 Coeff:      0.185D-02-0.280D-02-0.330D-01-0.843D-01-0.134D+00 0.428D+00
 Coeff:      0.824D+00
 Gap=     0.252 Goal=   None    Shift=    0.000
 Gap=     0.372 Goal=   None    Shift=    0.000
 RMSDP=1.01D-05 MaxDP=3.74D-04 DE=-2.68D-05 OVMax= 1.15D-03

 Cycle   8  Pass 1  IDiag  1:
 RMSU=  5.19D-06    CP:  9.63D-01  1.11D+00  1.01D+00  1.03D+00  1.36D+00
                    CP:  1.53D+00  1.29D+00
 E= -232.956269197122     Delta-E=       -0.000003984542 Rises=F Damp=F
 DIIS: error= 2.16D-05 at cycle   8 NSaved=   8.
 NSaved= 8 IEnMin= 8 EnMin= -232.956269197122     IErMin= 8 ErrMin= 2.16D-05
 ErrMax= 2.16D-05  0.00D+00 EMaxC= 1.00D-01 BMatC= 7.50D-07 BMatP= 7.77D-06
 IDIUse=1 WtCom= 1.00D+00 WtEn= 0.00D+00
 Coeff-Com: -0.773D-03 0.199D-02 0.838D-02 0.762D-02-0.287D-01-0.124D+00
 Coeff-Com:  0.135D+00 0.100D+01
 Coeff:     -0.773D-03 0.199D-02 0.838D-02 0.762D-02-0.287D-01-0.124D+00
 Coeff:      0.135D+00 0.100D+01
 Gap=     0.252 Goal=   None    Shift=    0.000
 Gap=     0.371 Goal=   None    Shift=    0.000
 RMSDP=4.58D-06 MaxDP=1.85D-04 DE=-3.98D-06 OVMax= 4.70D-04

 Cycle   9  Pass 1  IDiag  1:
 RMSU=  2.30D-06    CP:  9.63D-01  1.11D+00  1.01D+00  1.04D+00  1.37D+00
                    CP:  1.59D+00  1.49D+00  1.25D+00
 E= -232.956269673471     Delta-E=       -0.000000476349 Rises=F Damp=F
 DIIS: error= 7.06D-06 at cycle   9 NSaved=   9.
 NSaved= 9 IEnMin= 9 EnMin= -232.956269673471     IErMin= 9 ErrMin= 7.06D-06
 ErrMax= 7.06D-06  0.00D+00 EMaxC= 1.00D-01 BMatC= 8.85D-08 BMatP= 7.50D-07
 IDIUse=1 WtCom= 1.00D+00 WtEn= 0.00D+00
 Coeff-Com: -0.417D-03 0.849D-03 0.625D-02 0.137D-01 0.112D-01-0.815D-01
 Coeff-Com: -0.881D-01 0.209D+00 0.929D+00
 Coeff:     -0.417D-03 0.849D-03 0.625D-02 0.137D-01 0.112D-01-0.815D-01
 Coeff:     -0.881D-01 0.209D+00 0.929D+00
 Gap=     0.252 Goal=   None    Shift=    0.000
 Gap=     0.371 Goal=   None    Shift=    0.000
 RMSDP=1.56D-06 MaxDP=6.70D-05 DE=-4.76D-07 OVMax= 1.36D-04

 Cycle  10  Pass 1  IDiag  1:
 RMSU=  9.63D-07    CP:  9.63D-01  1.11D+00  1.01D+00  1.04D+00  1.36D+00
                    CP:  1.61D+00  1.54D+00  1.36D+00  9.58D-01
 E= -232.956269721059     Delta-E=       -0.000000047588 Rises=F Damp=F
 DIIS: error= 1.67D-06 at cycle  10 NSaved=  10.
 NSaved=10 IEnMin=10 EnMin= -232.956269721059     IErMin=10 ErrMin= 1.67D-06
 ErrMax= 1.67D-06  0.00D+00 EMaxC= 1.00D-01 BMatC= 6.33D-09 BMatP= 8.85D-08
 IDIUse=1 WtCom= 1.00D+00 WtEn= 0.00D+00
 Coeff-Com:  0.897D-04-0.202D-03-0.867D-03-0.746D-03 0.133D-02 0.120D-01
 Coeff-Com: -0.960D-02-0.894D-01-0.175D-01 0.110D+01
 Coeff:      0.897D-04-0.202D-03-0.867D-03-0.746D-03 0.133D-02 0.120D-01
 Coeff:     -0.960D-02-0.894D-01-0.175D-01 0.110D+01
 Gap=     0.252 Goal=   None    Shift=    0.000
 Gap=     0.371 Goal=   None    Shift=    0.000
 RMSDP=4.06D-07 MaxDP=1.40D-05 DE=-4.76D-08 OVMax= 4.26D-05

 Cycle  11  Pass 1  IDiag  1:
 RMSU=  2.13D-07    CP:  9.63D-01  1.11D+00  1.01D+00  1.04D+00  1.36D+00
                    CP:  1.61D+00  1.54D+00  1.38D+00  1.01D+00  1.25D+00
 E= -232.956269725075     Delta-E=       -0.000000004016 Rises=F Damp=F
 DIIS: error= 7.57D-07 at cycle  11 NSaved=  11.
 NSaved=11 IEnMin=11 EnMin= -232.956269725075     IErMin=11 ErrMin= 7.57D-07
 ErrMax= 7.57D-07  0.00D+00 EMaxC= 1.00D-01 BMatC= 1.10D-09 BMatP= 6.33D-09
 IDIUse=1 WtCom= 1.00D+00 WtEn= 0.00D+00
 Coeff-Com:  0.621D-04-0.134D-03-0.813D-03-0.138D-02-0.587D-03 0.111D-01
 Coeff-Com:  0.547D-02-0.446D-01-0.959D-01 0.288D+00 0.839D+00
 Coeff:      0.621D-04-0.134D-03-0.813D-03-0.138D-02-0.587D-03 0.111D-01
 Coeff:      0.547D-02-0.446D-01-0.959D-01 0.288D+00 0.839D+00
 Gap=     0.252 Goal=   None    Shift=    0.000
 Gap=     0.371 Goal=   None    Shift=    0.000
 RMSDP=1.40D-07 MaxDP=6.23D-06 DE=-4.02D-09 OVMax= 8.28D-06

 Cycle  12  Pass 1  IDiag  1:
 RMSU=  8.43D-08    CP:  9.63D-01  1.11D+00  1.01D+00  1.04D+00  1.36D+00
                    CP:  1.61D+00  1.54D+00  1.38D+00  1.01D+00  1.35D+00
                    CP:  1.18D+00
 E= -232.956269725524     Delta-E=       -0.000000000449 Rises=F Damp=F
 DIIS: error= 2.65D-07 at cycle  12 NSaved=  12.
 NSaved=12 IEnMin=12 EnMin= -232.956269725524     IErMin=12 ErrMin= 2.65D-07
 ErrMax= 2.65D-07  0.00D+00 EMaxC= 1.00D-01 BMatC= 1.62D-10 BMatP= 1.10D-09
 IDIUse=1 WtCom= 1.00D+00 WtEn= 0.00D+00
 Coeff-Com: -0.284D-05 0.442D-05-0.304D-04-0.150D-03-0.299D-03 0.429D-03
 Coeff-Com:  0.246D-02 0.376D-02-0.203D-01-0.105D+00 0.213D+00 0.906D+00
 Coeff:     -0.284D-05 0.442D-05-0.304D-04-0.150D-03-0.299D-03 0.429D-03
 Coeff:      0.246D-02 0.376D-02-0.203D-01-0.105D+00 0.213D+00 0.906D+00
 Gap=     0.252 Goal=   None    Shift=    0.000
 Gap=     0.371 Goal=   None    Shift=    0.000
 RMSDP=4.76D-08 MaxDP=1.99D-06 DE=-4.49D-10 OVMax= 3.00D-06

 Cycle  13  Pass 1  IDiag  1:
 RMSU=  2.90D-08    CP:  9.63D-01  1.11D+00  1.01D+00  1.04D+00  1.36D+00
                    CP:  1.61D+00  1.54D+00  1.38D+00  1.01D+00  1.36D+00
                    CP:  1.32D+00  1.14D+00
 E= -232.956269725593     Delta-E=       -0.000000000068 Rises=F Damp=F
 DIIS: error= 7.47D-08 at cycle  13 NSaved=  13.
 NSaved=13 IEnMin=13 EnMin= -232.956269725593     IErMin=13 ErrMin= 7.47D-08
 ErrMax= 7.47D-08  0.00D+00 EMaxC= 1.00D-01 BMatC= 1.04D-11 BMatP= 1.62D-10
 IDIUse=1 WtCom= 1.00D+00 WtEn= 0.00D+00
 Coeff-Com: -0.532D-05 0.112D-04 0.573D-04 0.852D-04 0.625D-05-0.769D-03
 Coeff-Com: -0.995D-04 0.402D-02 0.518D-02-0.363D-01-0.487D-01 0.103D+00
 Coeff-Com:  0.973D+00
 Coeff:     -0.532D-05 0.112D-04 0.573D-04 0.852D-04 0.625D-05-0.769D-03
 Coeff:     -0.995D-04 0.402D-02 0.518D-02-0.363D-01-0.487D-01 0.103D+00
 Coeff:      0.973D+00
 Gap=     0.252 Goal=   None    Shift=    0.000
 Gap=     0.371 Goal=   None    Shift=    0.000
 RMSDP=1.47D-08 MaxDP=5.67D-07 DE=-6.83D-11 OVMax= 8.50D-07

 Cycle  14  Pass 1  IDiag  1:
 RMSU=  1.08D-08    CP:  9.63D-01  1.11D+00  1.01D+00  1.04D+00  1.36D+00
                    CP:  1.61D+00  1.54D+00  1.38D+00  1.00D+00  1.36D+00
                    CP:  1.35D+00  1.18D+00  1.24D+00
 E= -232.956269725597     Delta-E=       -0.000000000004 Rises=F Damp=F
 DIIS: error= 2.74D-08 at cycle  14 NSaved=  14.
 NSaved=14 IEnMin=14 EnMin= -232.956269725597     IErMin=14 ErrMin= 2.74D-08
 ErrMax= 2.74D-08  0.00D+00 EMaxC= 1.00D-01 BMatC= 1.52D-12 BMatP= 1.04D-11
 IDIUse=1 WtCom= 1.00D+00 WtEn= 0.00D+00
 Coeff-Com: -0.372D-06 0.114D-05 0.113D-04 0.257D-04 0.248D-04-0.162D-03
 Coeff-Com: -0.260D-03 0.262D-03 0.309D-02 0.504D-02-0.323D-01-0.835D-01
 Coeff-Com:  0.187D+00 0.921D+00
 Coeff:     -0.372D-06 0.114D-05 0.113D-04 0.257D-04 0.248D-04-0.162D-03
 Coeff:     -0.260D-03 0.262D-03 0.309D-02 0.504D-02-0.323D-01-0.835D-01
 Coeff:      0.187D+00 0.921D+00
 Gap=     0.252 Goal=   None    Shift=    0.000
 Gap=     0.371 Goal=   None    Shift=    0.000
 RMSDP=4.92D-09 MaxDP=1.90D-07 DE=-3.81D-12 OVMax= 2.91D-07

 SCF Done:  E(UM062X) =  -232.956269726     A.U. after   14 cycles
            NFock= 14  Conv=0.49D-08     -V/T= 2.0043
 <Sx>= 0.0000 <Sy>= 0.0000 <Sz>= 0.5000 <S**2>= 0.7543 S= 0.5022
 <L.S>= 0.000000000000E+00
 KE= 2.319552609542D+02 PE=-9.171080698565D+02 EE= 2.649960086143D+02
 Annihilation of the first spin contaminant:
 S**2 before annihilation     0.7543,   after     0.7500
 Leave Link  502 at Wed Mar  6 23:51:55 2019, MaxMem=   104857600 cpu:             640.8 elap:             641.1
 (Enter /shared/centos7/gaussian/g16/l801.exe)
 DoSCS=F DFT=T ScalE2(SS,OS)=  1.000000  1.000000
 Range of M.O.s used for correlation:     1   251
 NBasis=   251 NAE=    21 NBE=    20 NFC=     0 NFV=     0
 NROrb=    251 NOA=    21 NOB=    20 NVA=   230 NVB=   231

 **** Warning!!: The largest alpha MO coefficient is  0.39858010D+02


 **** Warning!!: The largest beta MO coefficient is  0.45974222D+02

 Leave Link  801 at Wed Mar  6 23:51:55 2019, MaxMem=   104857600 cpu:               0.1 elap:               0.1
 (Enter /shared/centos7/gaussian/g16/l1101.exe)
 Using compressed storage, NAtomX=    14.
 Will process     15 centers per pass.
 Leave Link 1101 at Wed Mar  6 23:51:55 2019, MaxMem=   104857600 cpu:               0.4 elap:               0.4
 (Enter /shared/centos7/gaussian/g16/l1102.exe)
 Symmetrizing basis deriv contribution to polar:
 IMax=3 JMax=2 DiffMx= 0.00D+00
 Leave Link 1102 at Wed Mar  6 23:51:55 2019, MaxMem=   104857600 cpu:               0.1 elap:               0.1
 (Enter /shared/centos7/gaussian/g16/l1110.exe)
 Forming Gx(P) for the SCF density, NAtomX=    14.
 Integral derivatives from FoFJK, PRISM(SPDF).
 Do as many integral derivatives as possible in FoFJK.
 G2DrvN: MDV=     104856456.
 G2DrvN: will do    15 centers at a time, making    1 passes.
 Calling FoFCou, ICntrl=  3107 FMM=F I1Cent=   0 AccDes= 0.00D+00.
 FoFJK:  IHMeth= 1 ICntrl=    3107 DoSepK=F KAlg= 0 I1Cent=           0 FoldK=F
 IRaf=         0 NMat=       1 IRICut=       1 DoRegI=T DoRafI=F ISym2E= 0 IDoP0=0 IntGTp=1.
 FoFCou: FMM=F IPFlag=           0 FMFlag=      100000 FMFlg1=           0
         NFxFlg=           0 DoJE=F BraDBF=F KetDBF=F FulRan=T
         wScrn=  0.000000 ICntrl=      3107 IOpCl=  1 I1Cent=           0 NGrid=           0
         NMat0=    1 NMatS0=      1 NMatT0=    0 NMatD0=    1 NMtDS0=    0 NMtDT0=    0
 Symmetry not used in FoFCou.
 End of G2Drv F.D. properties file   721 does not exist.
 End of G2Drv F.D. properties file   722 does not exist.
 End of G2Drv F.D. properties file   788 does not exist.
 Leave Link 1110 at Thu Mar  7 00:14:47 2019, MaxMem=   104857600 cpu:            1371.7 elap:            1371.7
 (Enter /shared/centos7/gaussian/g16/l1002.exe)
 Minotr:  UHF open shell wavefunction.
          IDoAtm=11111111111111
          Direct CPHF calculation.
          Differentiating once with respect to nuclear coordinates.
          Requested convergence is 1.0D-08 RMS, and 1.0D-07 maximum.
          Secondary convergence is 1.0D-12 RMS, and 1.0D-12 maximum.
          NewPWx=T KeepS1=F KeepF1=F KeepIn=T MapXYZ=F SortEE=F KeepMc=T.
         4243 words used for storage of precomputed grid.
 Two-electron integrals replicated using symmetry.
          MDV=     104857600 using IRadAn=       1.
          Solving linear equations simultaneously, MaxMat=     384.
 FoF2E skips out because all densities are zero.
 CalDSu exits because no D1Ps are significant.
 FoFJK:  IHMeth= 1 ICntrl=       0 DoSepK=F KAlg= 0 I1Cent=           0 FoldK=F
 IRaf= 990000000 NMat=      42 IRICut=     105 DoRegI=T DoRafI=T ISym2E= 2 IDoP0=3 IntGTp=3.
 FoFCou: FMM=F IPFlag=           0 FMFlag=      100000 FMFlg1=           0
         NFxFlg=           0 DoJE=F BraDBF=F KetDBF=F FulRan=T
         wScrn=  0.000000 ICntrl=         0 IOpCl=  1 I1Cent=           0 NGrid=           0
         NMat0=   42 NMatS0=     42 NMatT0=    0 NMatD0=   42 NMtDS0=    0 NMtDT0=    0
 Integrals replicated using symmetry in FoFCou.
 Raff kept on since  97.62% of shell-pairs survive, threshold=   0.20 IRatSp=98.
          There are    45 degrees of freedom in the 1st order CPHF.  IDoFFX=6 NUNeed=     0.
     39 vectors produced by pass  0 Test12= 2.10D-14 2.22D-09 XBig12= 1.20D-01 4.87D-02.
 AX will form    39 AO Fock derivatives at one time.
     39 vectors produced by pass  1 Test12= 2.10D-14 2.22D-09 XBig12= 8.78D-03 1.88D-02.
     39 vectors produced by pass  2 Test12= 2.10D-14 2.22D-09 XBig12= 3.78D-04 4.78D-03.
     39 vectors produced by pass  3 Test12= 2.10D-14 2.22D-09 XBig12= 6.07D-06 2.66D-04.
     39 vectors produced by pass  4 Test12= 2.10D-14 2.22D-09 XBig12= 6.01D-08 2.29D-05.
     39 vectors produced by pass  5 Test12= 2.10D-14 2.22D-09 XBig12= 6.44D-10 2.24D-06.
     37 vectors produced by pass  6 Test12= 2.10D-14 2.22D-09 XBig12= 5.10D-12 2.09D-07.
     13 vectors produced by pass  7 Test12= 2.10D-14 2.22D-09 XBig12= 3.10D-14 1.69D-08.
 InvSVY:  IOpt=1 It=  1 EMax= 2.44D-15
 Solved reduced A of dimension   284 with    39 vectors.
 End of Minotr F.D. properties file   721 does not exist.
 End of Minotr F.D. properties file   722 does not exist.
 End of Minotr F.D. properties file   788 does not exist.
 Leave Link 1002 at Thu Mar  7 00:48:59 2019, MaxMem=   104857600 cpu:            2051.8 elap:            2052.1
 (Enter /shared/centos7/gaussian/g16/l601.exe)
 Copying SCF densities to generalized density rwf, IOpCl= 1 IROHF=0.

 **********************************************************************

            Population analysis using the SCF density.

 **********************************************************************

 Orbital symmetries:
 Alpha Orbitals:
       Occupied  (A) (A) (A) (A) (A) (A) (A) (A) (A) (A) (A) (A)
                 (A) (A) (A) (A) (A) (A) (A) (A) (A)
       Virtual   (A) (A) (A) (A) (A) (A) (A) (A) (A) (A) (A) (A)
                 (A) (A) (A) (A) (A) (A) (A) (A) (A) (A) (A) (A)
                 (A) (A) (A) (A) (A) (A) (A) (A) (A) (A) (A) (A)
                 (A) (A) (A) (A) (A) (A) (A) (A) (A) (A) (A) (A)
                 (A) (A) (A) (A) (A) (A) (A) (A) (A) (A) (A) (A)
                 (A) (A) (A) (A) (A) (A) (A) (A) (A) (A) (A) (A)
                 (A) (A) (A) (A) (A) (A) (A) (A) (A) (A) (A) (A)
                 (A) (A) (A) (A) (A) (A) (A) (A) (A) (A) (A) (A)
                 (A) (A) (A) (A) (A) (A) (A) (A) (A) (A) (A) (A)
                 (A) (A) (A) (A) (A) (A) (A) (A) (A) (A) (A) (A)
                 (A) (A) (A) (A) (A) (A) (A) (A) (A) (A) (A) (A)
                 (A) (A) (A) (A) (A) (A) (A) (A) (A) (A) (A) (A)
                 (A) (A) (A) (A) (A) (A) (A) (A) (A) (A) (A) (A)
                 (A) (A) (A) (A) (A) (A) (A) (A) (A) (A) (A) (A)
                 (A) (A) (A) (A) (A) (A) (A) (A) (A) (A) (A) (A)
                 (A) (A) (A) (A) (A) (A) (A) (A) (A) (A) (A) (A)
                 (A) (A) (A) (A) (A) (A) (A) (A) (A) (A) (A) (A)
                 (A) (A) (A) (A) (A) (A) (A) (A) (A) (A) (A) (A)
                 (A) (A) (A) (A) (A) (A) (A) (A) (A) (A) (A) (A)
                 (A) (A)
 Beta  Orbitals:
       Occupied  (A) (A) (A) (A) (A) (A) (A) (A) (A) (A) (A) (A)
                 (A) (A) (A) (A) (A) (A) (A) (A)
       Virtual   (A) (A) (A) (A) (A) (A) (A) (A) (A) (A) (A) (A)
                 (A) (A) (A) (A) (A) (A) (A) (A) (A) (A) (A) (A)
                 (A) (A) (A) (A) (A) (A) (A) (A) (A) (A) (A) (A)
                 (A) (A) (A) (A) (A) (A) (A) (A) (A) (A) (A) (A)
                 (A) (A) (A) (A) (A) (A) (A) (A) (A) (A) (A) (A)
                 (A) (A) (A) (A) (A) (A) (A) (A) (A) (A) (A) (A)
                 (A) (A) (A) (A) (A) (A) (A) (A) (A) (A) (A) (A)
                 (A) (A) (A) (A) (A) (A) (A) (A) (A) (A) (A) (A)
                 (A) (A) (A) (A) (A) (A) (A) (A) (A) (A) (A) (A)
                 (A) (A) (A) (A) (A) (A) (A) (A) (A) (A) (A) (A)
                 (A) (A) (A) (A) (A) (A) (A) (A) (A) (A) (A) (A)
                 (A) (A) (A) (A) (A) (A) (A) (A) (A) (A) (A) (A)
                 (A) (A) (A) (A) (A) (A) (A) (A) (A) (A) (A) (A)
                 (A) (A) (A) (A) (A) (A) (A) (A) (A) (A) (A) (A)
                 (A) (A) (A) (A) (A) (A) (A) (A) (A) (A) (A) (A)
                 (A) (A) (A) (A) (A) (A) (A) (A) (A) (A) (A) (A)
                 (A) (A) (A) (A) (A) (A) (A) (A) (A) (A) (A) (A)
                 (A) (A) (A) (A) (A) (A) (A) (A) (A) (A) (A) (A)
                 (A) (A) (A) (A) (A) (A) (A) (A) (A) (A) (A) (A)
                 (A) (A) (A)
 The electronic state is 2-A.
 Alpha  occ. eigenvalues --  -19.64584 -10.58642 -10.54336 -10.54004 -10.53447
 Alpha  occ. eigenvalues --   -1.16963  -0.91142  -0.82146  -0.73193  -0.66067
 Alpha  occ. eigenvalues --   -0.58938  -0.55866  -0.53045  -0.48890  -0.48675
 Alpha  occ. eigenvalues --   -0.45559  -0.42250  -0.41147  -0.39996  -0.38508
 Alpha  occ. eigenvalues --   -0.24069
 Alpha virt. eigenvalues --    0.01098   0.02481   0.03517   0.03760   0.05924
 Alpha virt. eigenvalues --    0.06380   0.07023   0.07560   0.07794   0.10707
 Alpha virt. eigenvalues --    0.11071   0.11231   0.11859   0.12485   0.15208
 Alpha virt. eigenvalues --    0.16787   0.18459   0.19099   0.19526   0.21201
 Alpha virt. eigenvalues --    0.22561   0.23928   0.24175   0.25827   0.26578
 Alpha virt. eigenvalues --    0.27359   0.28739   0.29868   0.30594   0.30670
 Alpha virt. eigenvalues --    0.32288   0.33815   0.39445   0.41514   0.42459
 Alpha virt. eigenvalues --    0.44286   0.45601   0.47442   0.50429   0.52006
 Alpha virt. eigenvalues --    0.52851   0.54403   0.55152   0.56779   0.58400
 Alpha virt. eigenvalues --    0.59391   0.59855   0.60923   0.61866   0.62693
 Alpha virt. eigenvalues --    0.63554   0.64252   0.66710   0.68771   0.69896
 Alpha virt. eigenvalues --    0.70175   0.71553   0.74984   0.77392   0.82341
 Alpha virt. eigenvalues --    0.83590   0.85909   0.89022   0.90997   0.96408
 Alpha virt. eigenvalues --    0.97390   1.00338   1.03078   1.04198   1.05231
 Alpha virt. eigenvalues --    1.07125   1.08753   1.10710   1.12185   1.14280
 Alpha virt. eigenvalues --    1.16564   1.17851   1.20877   1.22440   1.23867
 Alpha virt. eigenvalues --    1.24248   1.27422   1.28463   1.29584   1.30221
 Alpha virt. eigenvalues --    1.32164   1.33596   1.35026   1.37005   1.37655
 Alpha virt. eigenvalues --    1.40583   1.42919   1.43508   1.46026   1.47404
 Alpha virt. eigenvalues --    1.48104   1.48646   1.50532   1.52488   1.54491
 Alpha virt. eigenvalues --    1.56599   1.57033   1.59947   1.62317   1.63784
 Alpha virt. eigenvalues --    1.67839   1.69449   1.73146   1.78099   1.93000
 Alpha virt. eigenvalues --    2.08407   2.13679   2.31472   2.33713   2.40458
 Alpha virt. eigenvalues --    2.46089   2.51982   2.53910   2.58929   2.60362
 Alpha virt. eigenvalues --    2.69879   2.70477   2.75220   2.75769   2.78640
 Alpha virt. eigenvalues --    2.82307   2.83059   2.88691   2.91518   2.92447
 Alpha virt. eigenvalues --    2.95034   2.97673   2.98993   2.99559   3.04705
 Alpha virt. eigenvalues --    3.06459   3.10617   3.12828   3.16826   3.18212
 Alpha virt. eigenvalues --    3.20939   3.23095   3.25029   3.28373   3.29752
 Alpha virt. eigenvalues --    3.32893   3.36262   3.39442   3.40429   3.42622
 Alpha virt. eigenvalues --    3.42951   3.45856   3.50119   3.50448   3.55234
 Alpha virt. eigenvalues --    3.56080   3.59889   3.61173   3.66043   3.68894
 Alpha virt. eigenvalues --    3.70086   3.70568   3.76625   3.77580   3.79191
 Alpha virt. eigenvalues --    3.82840   3.84683   3.88425   3.91021   3.93581
 Alpha virt. eigenvalues --    3.95239   3.99615   4.01772   4.03482   4.06131
 Alpha virt. eigenvalues --    4.07476   4.09143   4.11859   4.15603   4.17765
 Alpha virt. eigenvalues --    4.20478   4.22769   4.24005   4.24908   4.25075
 Alpha virt. eigenvalues --    4.29470   4.32540   4.33992   4.39224   4.43330
 Alpha virt. eigenvalues --    4.46947   4.48975   4.51068   4.53573   4.57171
 Alpha virt. eigenvalues --    4.59744   4.65010   4.67999   4.69222   4.72463
 Alpha virt. eigenvalues --    4.75342   5.02984   5.15035   5.19400   5.23294
 Alpha virt. eigenvalues --    5.30034   5.37366   5.41303   5.43005   5.44621
 Alpha virt. eigenvalues --    5.49395   5.51774   5.55761   5.58372   5.61349
 Alpha virt. eigenvalues --    5.67116   5.82223   6.07221   6.55117   6.96630
 Alpha virt. eigenvalues --    7.08640   7.17867   7.23738   7.55194   7.60144
 Alpha virt. eigenvalues --   24.24181  24.27609  24.42482  24.51792  50.11747
  Beta  occ. eigenvalues --  -19.64216 -10.57804 -10.54335 -10.54023 -10.53447
  Beta  occ. eigenvalues --   -1.15648  -0.90856  -0.81110  -0.71888  -0.65563
  Beta  occ. eigenvalues --   -0.58322  -0.54798  -0.51710  -0.48423  -0.47145
  Beta  occ. eigenvalues --   -0.43759  -0.41160  -0.40142  -0.39848  -0.37860
  Beta virt. eigenvalues --   -0.00716   0.01298   0.02530   0.03278   0.03853
  Beta virt. eigenvalues --    0.05940   0.06385   0.06845   0.07535   0.07775
  Beta virt. eigenvalues --    0.10432   0.10965   0.11300   0.12062   0.12177
  Beta virt. eigenvalues --    0.14503   0.16208   0.18428   0.19323   0.19756
  Beta virt. eigenvalues --    0.21318   0.22564   0.23868   0.24191   0.26122
  Beta virt. eigenvalues --    0.27115   0.27406   0.28641   0.29899   0.30633
  Beta virt. eigenvalues --    0.30914   0.32968   0.33984   0.39899   0.41889
  Beta virt. eigenvalues --    0.42655   0.44421   0.45620   0.47461   0.50881
  Beta virt. eigenvalues --    0.52108   0.53513   0.54375   0.55223   0.57520
  Beta virt. eigenvalues --    0.58649   0.59462   0.60174   0.61040   0.61738
  Beta virt. eigenvalues --    0.62583   0.63704   0.64513   0.66877   0.68588
  Beta virt. eigenvalues --    0.69832   0.70217   0.71676   0.74623   0.77918
  Beta virt. eigenvalues --    0.82443   0.83511   0.85993   0.89125   0.91150
  Beta virt. eigenvalues --    0.96487   0.97599   0.99986   1.03043   1.04303
  Beta virt. eigenvalues --    1.05419   1.06968   1.08434   1.11052   1.12516
  Beta virt. eigenvalues --    1.14325   1.16406   1.17862   1.21342   1.22560
  Beta virt. eigenvalues --    1.24034   1.24403   1.27479   1.28634   1.29970
  Beta virt. eigenvalues --    1.30454   1.32142   1.33622   1.35382   1.37119
  Beta virt. eigenvalues --    1.37729   1.40870   1.43109   1.43613   1.46209
  Beta virt. eigenvalues --    1.47683   1.48211   1.48654   1.50612   1.52638
  Beta virt. eigenvalues --    1.54583   1.56593   1.57330   1.60048   1.62307
  Beta virt. eigenvalues --    1.63811   1.67889   1.69481   1.73245   1.77993
  Beta virt. eigenvalues --    1.93477   2.09149   2.14153   2.32059   2.34236
  Beta virt. eigenvalues --    2.40698   2.46160   2.52293   2.54556   2.59252
  Beta virt. eigenvalues --    2.61353   2.70106   2.71794   2.75879   2.76458
  Beta virt. eigenvalues --    2.80527   2.83553   2.84623   2.89863   2.92028
  Beta virt. eigenvalues --    2.93906   2.95715   2.98504   2.99246   3.00803
  Beta virt. eigenvalues --    3.05132   3.07340   3.12320   3.13655   3.17824
  Beta virt. eigenvalues --    3.18958   3.21468   3.25122   3.26792   3.29595
  Beta virt. eigenvalues --    3.31024   3.33635   3.37578   3.40054   3.41567
  Beta virt. eigenvalues --    3.43733   3.44376   3.46990   3.52477   3.53598
  Beta virt. eigenvalues --    3.56588   3.59623   3.60622   3.62874   3.66474
  Beta virt. eigenvalues --    3.69014   3.70897   3.71559   3.77830   3.78348
  Beta virt. eigenvalues --    3.80346   3.83470   3.85081   3.89196   3.91878
  Beta virt. eigenvalues --    3.94375   3.95385   3.99578   4.02581   4.03941
  Beta virt. eigenvalues --    4.06407   4.08177   4.09844   4.12282   4.15844
  Beta virt. eigenvalues --    4.18517   4.21097   4.23319   4.24719   4.25228
  Beta virt. eigenvalues --    4.25983   4.30701   4.32698   4.34811   4.39616
  Beta virt. eigenvalues --    4.44127   4.47940   4.49827   4.51242   4.54039
  Beta virt. eigenvalues --    4.58051   4.60340   4.65120   4.68880   4.70235
  Beta virt. eigenvalues --    4.73152   4.75442   5.04619   5.16108   5.20918
  Beta virt. eigenvalues --    5.23702   5.30222   5.37678   5.41373   5.43001
  Beta virt. eigenvalues --    5.47694   5.49676   5.51821   5.55922   5.58445
  Beta virt. eigenvalues --    5.62378   5.67497   5.82994   6.07623   6.56163
  Beta virt. eigenvalues --    6.97513   7.09448   7.18817   7.24154   7.55805
  Beta virt. eigenvalues --    7.60032  24.24299  24.28094  24.43025  24.52185
  Beta virt. eigenvalues --   50.11477
          Condensed to atoms (all electrons):
               1          2          3          4          5          6
     1  O    7.979429  -0.006257  -0.029438  -0.013705   0.122653  -0.000223
     2  C   -0.006257   5.538644   0.017208   0.148911  -0.070536   0.419069
     3  C   -0.029438   0.017208   5.333847  -0.063903   0.208933  -0.036893
     4  C   -0.013705   0.148911  -0.063903   5.164439   0.028981  -0.025732
     5  C    0.122653  -0.070536   0.208933   0.028981   5.622053   0.014273
     6  H   -0.000223   0.419069  -0.036893  -0.025732   0.014273   0.527327
     7  H   -0.004214   0.472511  -0.042840  -0.085603  -0.021726  -0.026242
     8  H    0.006507  -0.009556   0.447740  -0.013630  -0.081819  -0.006775
     9  H   -0.003191  -0.056396   0.441659   0.015405  -0.036257  -0.004909
    10  H    0.001738  -0.023323  -0.005081   0.407326  -0.010978  -0.008643
    11  H    0.000419  -0.058275   0.025224   0.428862   0.000813  -0.005622
    12  H   -0.001238  -0.040141  -0.030703   0.430122   0.007812   0.007069
    13  H   -0.043390   0.009476  -0.052031   0.002601   0.418914  -0.000276
    14  H    0.263627   0.002734  -0.018902  -0.006967  -0.007969   0.000539
               7          8          9         10         11         12
     1  O   -0.004214   0.006507  -0.003191   0.001738   0.000419  -0.001238
     2  C    0.472511  -0.009556  -0.056396  -0.023323  -0.058275  -0.040141
     3  C   -0.042840   0.447740   0.441659  -0.005081   0.025224  -0.030703
     4  C   -0.085603  -0.013630   0.015405   0.407326   0.428862   0.430122
     5  C   -0.021726  -0.081819  -0.036257  -0.010978   0.000813   0.007812
     6  H   -0.026242  -0.006775  -0.004909  -0.008643  -0.005622   0.007069
     7  H    0.564611   0.006565  -0.010535   0.007825  -0.003235  -0.010365
     8  H    0.006565   0.526953  -0.035682   0.001585  -0.000324  -0.000142
     9  H   -0.010535  -0.035682   0.547499  -0.000068  -0.000156  -0.000024
    10  H    0.007825   0.001585  -0.000068   0.548287  -0.021282  -0.034208
    11  H   -0.003235  -0.000324  -0.000156  -0.021282   0.519189  -0.025513
    12  H   -0.010365  -0.000142  -0.000024  -0.034208  -0.025513   0.556253
    13  H    0.000221   0.001743  -0.011163  -0.000011   0.000022  -0.000113
    14  H    0.004258  -0.000262   0.000834  -0.000298  -0.000464   0.002433
              13         14
     1  O   -0.043390   0.263627
     2  C    0.009476   0.002734
     3  C   -0.052031  -0.018902
     4  C    0.002601  -0.006967
     5  C    0.418914  -0.007969
     6  H   -0.000276   0.000539
     7  H    0.000221   0.004258
     8  H    0.001743  -0.000262
     9  H   -0.011163   0.000834
    10  H   -0.000011  -0.000298
    11  H    0.000022  -0.000464
    12  H   -0.000113   0.002433
    13  H    0.520482   0.005620
    14  H    0.005620   0.500992
          Atomic-Atomic Spin Densities.
               1          2          3          4          5          6
     1  O    0.270400   0.011169   0.003656   0.001778  -0.217077   0.000033
     2  C    0.011169   0.059882  -0.019340  -0.018703  -0.046931   0.000481
     3  C    0.003656  -0.019340  -0.011099   0.011275  -0.028908   0.001187
     4  C    0.001778  -0.018703   0.011275   0.021915  -0.002394  -0.001377
     5  C   -0.217077  -0.046931  -0.028908  -0.002394   1.270033  -0.000095
     6  H    0.000033   0.000481   0.001187  -0.001377  -0.000095  -0.002536
     7  H   -0.000165   0.013868  -0.012626  -0.002047  -0.001092   0.000171
     8  H    0.001438   0.030093  -0.002735  -0.004453  -0.037589  -0.000549
     9  H    0.004060  -0.032571   0.036452   0.003388  -0.009251   0.000976
    10  H    0.000681   0.005039  -0.004017  -0.000526  -0.003383   0.000008
    11  H   -0.000545  -0.004237   0.002714   0.000285   0.001587   0.000175
    12  H    0.003888   0.005028   0.000697  -0.001876  -0.010238  -0.000124
    13  H    0.001547   0.004376   0.006802   0.000216  -0.026189  -0.000016
    14  H   -0.001281  -0.003928   0.003813   0.001200   0.005836   0.000018
               7          8          9         10         11         12
     1  O   -0.000165   0.001438   0.004060   0.000681  -0.000545   0.003888
     2  C    0.013868   0.030093  -0.032571   0.005039  -0.004237   0.005028
     3  C   -0.012626  -0.002735   0.036452  -0.004017   0.002714   0.000697
     4  C   -0.002047  -0.004453   0.003388  -0.000526   0.000285  -0.001876
     5  C   -0.001092  -0.037589  -0.009251  -0.003383   0.001587  -0.010238
     6  H    0.000171  -0.000549   0.000976   0.000008   0.000175  -0.000124
     7  H    0.001866   0.000834  -0.001910   0.000230  -0.000319   0.000479
     8  H    0.000834   0.034138  -0.012384   0.000911  -0.000130   0.000323
     9  H   -0.001910  -0.012384   0.055491  -0.000144   0.000066  -0.000129
    10  H    0.000230   0.000911  -0.000144  -0.000717  -0.000127  -0.000080
    11  H   -0.000319  -0.000130   0.000066  -0.000127  -0.000180   0.000114
    12  H    0.000479   0.000323  -0.000129  -0.000080   0.000114  -0.002006
    13  H    0.000347   0.004019  -0.007116   0.000043  -0.000017   0.000108
    14  H   -0.001505  -0.000481   0.000987  -0.000155   0.000144  -0.000515
              13         14
     1  O    0.001547  -0.001281
     2  C    0.004376  -0.003928
     3  C    0.006802   0.003813
     4  C    0.000216   0.001200
     5  C   -0.026189   0.005836
     6  H   -0.000016   0.000018
     7  H    0.000347  -0.001505
     8  H    0.004019  -0.000481
     9  H   -0.007116   0.000987
    10  H    0.000043  -0.000155
    11  H   -0.000017   0.000144
    12  H    0.000108  -0.000515
    13  H    0.002205  -0.000950
    14  H   -0.000950  -0.004014
 Mulliken charges and spin densities:
               1          2
     1  O   -0.272717   0.079582
     2  C   -0.344068   0.004226
     3  C   -0.194819  -0.012128
     4  C   -0.417106   0.008679
     5  C   -0.195147   0.894309
     6  H    0.147037  -0.001652
     7  H    0.148771  -0.001869
     8  H    0.157096   0.013434
     9  H    0.152985   0.037913
    10  H    0.137134  -0.002236
    11  H    0.140343  -0.000468
    12  H    0.138759  -0.004332
    13  H    0.147905  -0.014625
    14  H    0.253827  -0.000832
 Sum of Mulliken charges =  -0.00000   1.00000
 Mulliken charges and spin densities with hydrogens summed into heavy atoms:
               1          2
     1  O   -0.018890   0.078750
     2  C   -0.048261   0.000705
     3  C    0.115262   0.039219
     4  C   -0.000869   0.001643
     5  C   -0.047242   0.879684
 APT charges:
               1
     1  O   -0.509300
     2  C   -0.683742
     3  C   -0.788588
     4  C   -1.097366
     5  C   -0.413900
     6  H    0.475353
     7  H    0.257081
     8  H    0.407192
     9  H    0.418259
    10  H    0.317185
    11  H    0.528487
    12  H    0.190979
    13  H    0.503113
    14  H    0.395246
 Sum of APT charges =  -0.00000
 APT charges with hydrogens summed into heavy atoms:
               1
     1  O   -0.114054
     2  C    0.048692
     3  C    0.036863
     4  C   -0.060715
     5  C    0.089213
 Electronic spatial extent (au):  <R**2>=            466.7582
 Charge=             -0.0000 electrons
 Dipole moment (field-independent basis, Debye):
    X=              1.6475    Y=              0.9238    Z=              0.7706  Tot=              2.0400
 Quadrupole moment (field-independent basis, Debye-Ang):
   XX=            -35.1822   YY=            -32.5798   ZZ=            -34.1040
   XY=             -2.8839   XZ=              0.1197   YZ=             -1.3434
 Traceless Quadrupole moment (field-independent basis, Debye-Ang):
   XX=             -1.2269   YY=              1.3755   ZZ=             -0.1487
   XY=             -2.8839   XZ=              0.1197   YZ=             -1.3434
 Octapole moment (field-independent basis, Debye-Ang**2):
  XXX=             -0.2570  YYY=             -3.4493  ZZZ=              4.2444  XYY=              0.7364
  XXY=              5.5140  XXZ=              0.1516  XZZ=             -0.0238  YZZ=             -1.2723
  YYZ=              2.3224  XYZ=             -0.8044
 Hexadecapole moment (field-independent basis, Debye-Ang**3):
 XXXX=           -353.6726 YYYY=           -181.0615 ZZZZ=            -97.5618 XXXY=             -8.6455
 XXXZ=              4.2906 YYYX=              2.1676 YYYZ=             -4.8818 ZZZX=             -6.3959
 ZZZY=             -4.3565 XXYY=            -92.5993 XXZZ=            -79.3240 YYZZ=            -43.3771
 XXYZ=             -0.8725 YYXZ=             -0.2242 ZZXY=              2.4898
 N-N= 1.872005305624D+02 E-N=-9.171080684716D+02  KE= 2.319552609542D+02
  Exact polarizability:   0.000   0.000   0.000   0.000   0.000   0.000
 Approx polarizability:  61.944   0.375  63.966   1.103  -2.409  60.587
                          Isotropic Fermi Contact Couplings
        Atom                 a.u.       MegaHertz       Gauss      10(-4) cm-1
     1  O(17)              0.04814     -29.18104     -10.41252      -9.73375
     2  C(13)              0.00150       1.68715       0.60202       0.56277
     3  C(13)             -0.00554      -6.22925      -2.22275      -2.07785
     4  C(13)             -0.00105      -1.17703      -0.41999      -0.39261
     5  C(13)              0.33427     375.78228     134.08846     125.34747
     6  H(1)              -0.00034      -1.50219      -0.53602      -0.50108
     7  H(1)               0.00003       0.14609       0.05213       0.04873
     8  H(1)               0.00943      42.15281      15.04117      14.06066
     9  H(1)               0.02107      94.16781      33.60142      31.41100
    10  H(1)               0.00011       0.47202       0.16843       0.15745
    11  H(1)              -0.00005      -0.23031      -0.08218      -0.07682
    12  H(1)               0.00025       1.12502       0.40143       0.37527
    13  H(1)               0.00092       4.10145       1.46350       1.36810
    14  H(1)              -0.00231     -10.30767      -3.67803      -3.43827
 --------------------------------------------------------
       Center         ----  Spin Dipole Couplings  ----
                      3XX-RR        3YY-RR        3ZZ-RR
 --------------------------------------------------------
     1   Atom       -0.293239     -0.276569      0.569808
     2   Atom        0.007921     -0.005747     -0.002174
     3   Atom       -0.000838     -0.002349      0.003187
     4   Atom        0.005969     -0.003573     -0.002397
     5   Atom       -0.427525     -0.335252      0.762777
     6   Atom        0.004189     -0.002526     -0.001663
     7   Atom        0.002300     -0.004493      0.002193
     8   Atom        0.002644      0.007040     -0.009684
     9   Atom       -0.002202      0.003752     -0.001550
    10   Atom        0.007690     -0.003809     -0.003882
    11   Atom        0.003377     -0.001469     -0.001908
    12   Atom        0.008271     -0.001032     -0.007239
    13   Atom        0.035198     -0.018443     -0.016755
    14   Atom        0.009624     -0.012772      0.003148
 --------------------------------------------------------
                        XY            XZ            YZ
 --------------------------------------------------------
     1   Atom       -0.112990     -0.235800      0.366888
     2   Atom        0.001782      0.006749      0.001326
     3   Atom        0.023630      0.020642      0.018344
     4   Atom       -0.003428      0.001936      0.001986
     5   Atom       -0.092884     -0.255757      0.452882
     6   Atom        0.001486      0.003038      0.000929
     7   Atom       -0.000589      0.007674     -0.001183
     8   Atom        0.015614     -0.002758     -0.002517
     9   Atom        0.005245      0.004006      0.010516
    10   Atom       -0.000626     -0.001958     -0.000004
    11   Atom       -0.001849      0.001018     -0.000270
    12   Atom       -0.010088      0.000383     -0.001220
    13   Atom       -0.056305      0.003788      0.009811
    14   Atom       -0.019946      0.018636     -0.012567
 --------------------------------------------------------


 ---------------------------------------------------------------------------------
              Anisotropic Spin Dipole Couplings in Principal Axis System
 ---------------------------------------------------------------------------------

       Atom             a.u.   MegaHertz   Gauss  10(-4) cm-1        Axes

              Baa    -0.4215    30.501    10.883    10.174  0.3241  0.9097 -0.2596
     1 O(17)  Bbb    -0.3490    25.251     9.010     8.423  0.9156 -0.2327  0.3279
              Bcc     0.7705   -55.752   -19.894   -18.597 -0.2379  0.3440  0.9084
 
              Baa    -0.0062    -0.837    -0.299    -0.279  0.1227  0.8653 -0.4859
     2 C(13)  Bbb    -0.0053    -0.716    -0.256    -0.239 -0.4475  0.4853  0.7511
              Bcc     0.0116     1.554     0.554     0.518  0.8858  0.1253  0.4468
 
              Baa    -0.0253    -3.401    -1.214    -1.135  0.7310 -0.6758 -0.0943
     3 C(13)  Bbb    -0.0164    -2.205    -0.787    -0.736 -0.3405 -0.4810  0.8079
              Bcc     0.0418     5.607     2.001     1.870  0.5914  0.5585  0.5817
 
              Baa    -0.0063    -0.846    -0.302    -0.282  0.3042  0.7798 -0.5472
     4 C(13)  Bbb    -0.0009    -0.126    -0.045    -0.042  0.0471  0.5614  0.8262
              Bcc     0.0072     0.972     0.347     0.324  0.9515 -0.2771  0.1341
 
              Baa    -0.4980   -66.825   -23.845   -22.290  0.0514  0.9432 -0.3284
     5 C(13)  Bbb    -0.4801   -64.431   -22.991   -21.492  0.9804  0.0149  0.1963
              Bcc     0.9781   131.256    46.836    43.782 -0.1900  0.3320  0.9239
 
              Baa    -0.0032    -1.702    -0.607    -0.568 -0.1759 -0.6458  0.7430
     6 H(1)   Bbb    -0.0026    -1.414    -0.504    -0.472 -0.4019  0.7361  0.5446
              Bcc     0.0058     3.115     1.112     1.039  0.8987  0.2028  0.3890
 
              Baa    -0.0056    -2.991    -1.067    -0.998 -0.6275  0.3863  0.6760
     7 H(1)   Bbb    -0.0044    -2.360    -0.842    -0.787  0.3299  0.9184 -0.2185
              Bcc     0.0100     5.351     1.909     1.785  0.7053 -0.0859  0.7037
 
              Baa    -0.0111    -5.929    -2.116    -1.978  0.7223 -0.5663  0.3969
     8 H(1)   Bbb    -0.0099    -5.306    -1.893    -1.770 -0.2292  0.3455  0.9100
              Bcc     0.0211    11.235     4.009     3.748  0.6525  0.7483 -0.1198
 
              Baa    -0.0097    -5.199    -1.855    -1.734  0.0115 -0.6173  0.7866
     9 H(1)   Bbb    -0.0048    -2.562    -0.914    -0.855  0.9303 -0.2818 -0.2348
              Bcc     0.0145     7.762     2.770     2.589  0.3666  0.7345  0.5711
 
              Baa    -0.0042    -2.258    -0.806    -0.753  0.1697  0.2601  0.9506
    10 H(1)   Bbb    -0.0038    -2.034    -0.726    -0.678  0.0073  0.9642 -0.2651
              Bcc     0.0080     4.292     1.532     1.432  0.9855 -0.0519 -0.1618
 
              Baa    -0.0022    -1.153    -0.411    -0.385 -0.3409 -0.6442  0.6847
    11 H(1)   Bbb    -0.0020    -1.079    -0.385    -0.360  0.1053  0.6976  0.7088
              Bcc     0.0042     2.232     0.796     0.745  0.9342 -0.3137  0.1700
 
              Baa    -0.0082    -4.382    -1.564    -1.462  0.3804  0.6468  0.6610
    12 H(1)   Bbb    -0.0066    -3.500    -1.249    -1.167 -0.3857 -0.5387  0.7490
              Bcc     0.0148     7.882     2.812     2.629  0.8405 -0.5399  0.0445
 
              Baa    -0.0567   -30.231   -10.787   -10.084  0.5134  0.8208 -0.2505
    13 H(1)   Bbb    -0.0141    -7.540    -2.691    -2.515  0.1534  0.1995  0.9678
              Bcc     0.0708    37.771    13.478    12.599  0.8443 -0.5353 -0.0235
 
              Baa    -0.0246   -13.110    -4.678    -4.373  0.4670  0.8801  0.0850
    14 H(1)   Bbb    -0.0119    -6.329    -2.258    -2.111 -0.5288  0.2009  0.8247
              Bcc     0.0364    19.439     6.936     6.484  0.7087 -0.4301  0.5592
 

 ---------------------------------------------------------------------------------

 No NMR shielding tensors so no spin-rotation constants.
 Leave Link  601 at Thu Mar  7 00:49:00 2019, MaxMem=   104857600 cpu:               0.6 elap:               0.6
 (Enter /shared/centos7/gaussian/g16/l701.exe)
 SCFChk:  SCF convergence  4.92D-09 required  1.00D-08
 ... and contract with generalized density number  0.
 Compute integral second derivatives.
 Entering OneElI...
 Calculate overlap and kinetic energy integrals
    NBasis = 276  MinDer = 2  MaxDer = 2
 Requested accuracy = 0.1000D-12
 PrmmSu-InSpLW:  IPartL=    0 NPrtUS=    1 NPrtUL=    1 DoSpLW=F IThBeg=    0 IThEnd=    0 NThAct=    1.
 PrsmSu:  NPrtUS=   1 ThrOK=F IAlg=1 NPAlg=1 LenDen=           0 ISkipM=0 DoSpLW=F IThBeg=    0 IThEnd=    0.
 Prism:   IPart=     0 DynPar=F LinDyn=F Incr=          36.
 PRISM was handed   104330031 working-precision words and  3655 shell-pairs
 IPart=  0 NShTot=        3655 NBatch=         190 AvBLen=        19.2
 PrSmSu:  NxtVal=             37.
 Entering OneElI...
 Calculate potential energy integrals
    NBasis = 276  MinDer = 2  MaxDer = 2
 Requested accuracy = 0.1000D-12
 PrmmSu-InSpLW:  IPartL=    0 NPrtUS=    1 NPrtUL=    1 DoSpLW=F IThBeg=    0 IThEnd=    0 NThAct=    1.
 PrsmSu:  NPrtUS=   1 ThrOK=F IAlg=1 NPAlg=1 LenDen=           0 ISkipM=0 DoSpLW=F IThBeg=    0 IThEnd=    0.
 Prism:   IPart=     0 DynPar=F LinDyn=F Incr=         496.
 PRISM was handed   104420224 working-precision words and  3546 shell-pairs
 IPart=  0 NShTot=       49644 NBatch=        3546 AvBLen=        14.0
 PrSmSu:  NxtVal=            497.
 Polarizability after L701:
                1             2             3 
      1  0.000000D+00
      2  0.000000D+00  0.000000D+00
      3  0.000000D+00  0.000000D+00  0.000000D+00
 Dipole Derivatives after L701:
                 1             2             3             4             5 
      1  -0.408382D+00 -0.235838D+00  0.176919D+00 -0.643858D+00 -0.588292D+00
      2   0.301834D+00 -0.629120D+00  0.264052D+00 -0.579308D+00 -0.457849D+00
      3  -0.188471D+00  0.113582D+00 -0.490398D+00 -0.129418D+00  0.203941D+00
                 6             7             8             9            10 
      1  -0.670929D+00 -0.230280D+00  0.698339D-01  0.389879D+00 -0.135664D+01
      2   0.475499D-01  0.567635D-01 -0.140990D+01 -0.302562D-01  0.377591D-01
      3  -0.949519D+00  0.424748D+00  0.371536D-01 -0.725588D+00 -0.164638D+00
                11            12            13            14            15 
      1   0.602556D+00  0.645411D+00 -0.963769D+00  0.792801D+00 -0.226493D+00
      2  -0.107881D+01 -0.109450D+00  0.467688D+00 -0.202264D+00  0.120906D+00
      3   0.736804D-01 -0.856645D+00 -0.285845D+00  0.157208D+00 -0.756671D-01
                16            17            18            19            20 
      1   0.736387D+00  0.493910D+00  0.153415D+00  0.392737D-01 -0.173056D+00
      2   0.335007D+00  0.459203D+00  0.976056D-01  0.736428D-02  0.194801D+00
      3   0.271815D+00  0.245848D+00  0.230469D+00 -0.242946D+00 -0.332674D+00
                21            22            23            24            25 
      1   0.144735D+00  0.167247D+00  0.448657D-01 -0.363738D-01  0.262595D+00
      2  -0.327446D-01  0.240608D+00  0.586456D+00 -0.544605D+00 -0.257565D+00
      3   0.537169D+00 -0.110189D+00 -0.219953D+00  0.467874D+00 -0.101921D+00
                26            27            28            29            30 
      1  -0.129214D+00 -0.157529D+00  0.225969D+00  0.424588D+00 -0.660504D+00
      2   0.628284D+00  0.527593D+00  0.895744D-02  0.131123D+00  0.169400D-01
      3   0.173551D+00  0.363900D+00 -0.955521D-01 -0.303843D+00  0.594463D+00
                31            32            33            34            35 
      1   0.108313D+01 -0.556196D+00  0.430304D+00 -0.106246D+00 -0.168405D+00
      2  -0.429535D+00  0.363444D+00 -0.179519D+00  0.453844D+00  0.478107D+00
      3   0.209719D-01  0.404709D-02  0.138885D+00  0.192462D+00  0.163555D+00
                36            37            38            39            40 
      1  -0.869985D-01  0.990177D+00 -0.722439D+00  0.264391D-01  0.204399D+00
      2   0.132560D+00 -0.235692D+00  0.380575D+00 -0.170759D-01 -0.407727D+00
      3   0.201077D+00  0.180528D+00 -0.176520D+00  0.138587D+00  0.228455D+00
                41            42 
      1   0.144885D+00 -0.128274D+00
      2   0.555947D+00 -0.293556D+00
      3  -0.139575D+00  0.425392D+00
 Hessian after L701:
                1             2             3             4             5 
      1  0.873718D+01
      2  0.575649D+00  0.592436D+01
      3 -0.165934D+01  0.447547D+01  0.103941D+02
      4  0.176582D+00  0.242961D+00  0.172915D+00  0.120941D+02
      5  0.359893D+00 -0.154878D-01  0.150461D+00  0.665592D+00  0.133134D+02
      6 -0.312912D-01  0.412751D-01 -0.280684D+00 -0.279180D+00 -0.108213D-01
      7  0.955445D-01  0.605851D+00 -0.167569D+00 -0.270061D+01 -0.150633D+01
      8  0.526681D+00  0.336079D+00 -0.187938D+00 -0.143605D+01 -0.433178D+01
      9 -0.147849D+00 -0.209801D+00 -0.376031D+00  0.144492D+01 -0.802068D+00
     10  0.419966D+00  0.133050D-01 -0.124204D+00 -0.424584D+01 -0.122952D+01
     11  0.173965D+00 -0.225678D+00 -0.110021D-01 -0.121912D+01 -0.328445D+01
     12 -0.646303D-01  0.190502D-01 -0.211328D+00 -0.106108D+01  0.154962D+01
     13 -0.727147D+01 -0.366083D-01  0.265177D-01  0.321792D+00 -0.300225D-01
     14  0.396604D-01 -0.129998D+01 -0.347823D+01 -0.110544D-01 -0.885444D-01
     15  0.481928D-02 -0.348037D+01 -0.494379D+01 -0.185151D-01 -0.239840D-01
     16  0.511327D-01  0.353888D-01  0.110460D-01 -0.228372D+01  0.118072D+01
     17  0.491637D-01  0.521971D-02  0.846391D-02  0.117687D+01 -0.258707D+01
     18  0.148980D-01  0.551975D-02 -0.143466D-01  0.520583D+00  0.458655D+00
     19  0.233218D-01  0.633095D-02  0.644329D-01 -0.362501D+01  0.450508D+00
     20 -0.171719D-01 -0.701594D-01 -0.347425D-02  0.525312D+00 -0.313202D+01
     21  0.125166D+00  0.238532D-01  0.327441D-01 -0.809982D+00 -0.117038D+01
     22 -0.723121D-02  0.777127D-01 -0.293759D-01  0.146852D-01  0.965199D-02
     23  0.899361D-01  0.103646D+00 -0.562770D-01 -0.247372D-01  0.318784D-01
     24 -0.529284D-01 -0.845824D-01 -0.163584D-01 -0.112455D-02 -0.204923D-01
     25 -0.262660D-01 -0.257412D-02  0.427077D-02  0.420999D-02  0.377520D-01
     26  0.370346D-01  0.506455D-01  0.305354D-01  0.560395D-01  0.363737D-01
     27  0.208540D-01  0.446198D-01 -0.117087D-01  0.844976D-03  0.235211D-01
     28  0.480007D-01  0.213117D-01 -0.305939D-01  0.137415D-01  0.454805D-02
     29  0.369496D-01 -0.159655D-01 -0.136201D-01  0.267769D-01  0.491174D-01
     30 -0.626512D-01 -0.129724D-01 -0.218083D-02 -0.104357D-02 -0.676935D-02
     31  0.791521D-01 -0.101901D-01  0.182255D-02  0.422432D-01  0.265709D-01
     32 -0.230214D-01 -0.154970D-01 -0.666145D-03  0.221652D-01  0.759476D-02
     33  0.801427D-02 -0.157179D-02 -0.174294D-01  0.541388D-01 -0.316110D-01
     34  0.327604D-01 -0.109625D-01 -0.210182D-01  0.105277D+00  0.474631D-01
     35 -0.725933D-01 -0.529226D-01  0.190121D-01 -0.475841D-01  0.504371D-02
     36 -0.707906D-01  0.174741D-01 -0.578559D-01 -0.464024D-01 -0.891044D-01
     37  0.177155D+00 -0.129642D+00  0.301537D-02  0.140399D+00 -0.163433D-01
     38 -0.113900D+00  0.303711D-01  0.600347D-01 -0.454075D-01 -0.444593D-01
     39 -0.411125D-02  0.763056D-01 -0.385885D-01  0.479490D-01 -0.252230D-02
     40 -0.253583D+01 -0.138853D+01  0.174808D+01 -0.578014D-01 -0.490932D-03
     41 -0.166225D+01 -0.475462D+01 -0.992772D+00  0.682381D-01  0.404030D-01
     42  0.191984D+01 -0.914271D+00 -0.445651D+01 -0.240183D-01 -0.245039D-01
                6             7             8             9            10 
      6  0.143512D+02
      7  0.135071D+01  0.124052D+02
      8 -0.757856D+00 -0.102333D+01  0.127643D+02
      9 -0.448405D+01 -0.650252D+00  0.974656D-01  0.147557D+02
     10 -0.106045D+01  0.977489D-01 -0.595655D-01 -0.885438D-01  0.106378D+02
     11  0.154701D+01 -0.125606D+00  0.622785D-02  0.826816D-01  0.835091D+00
     12 -0.381300D+01  0.556023D-02  0.307508D-02 -0.220095D-01  0.245488D+00
     13  0.142755D-01 -0.311688D+01  0.215213D+01  0.768786D+00  0.372552D+00
     14 -0.213926D-02  0.220098D+01 -0.380931D+01  0.716866D+00 -0.173505D+00
     15 -0.132096D+00  0.875631D+00  0.710418D+00 -0.529562D+01  0.858160D-01
     16  0.496570D+00  0.386700D-02  0.364398D-01 -0.103380D-01  0.424654D-01
     17  0.436580D+00  0.496765D-01  0.676595D-01  0.250428D-01  0.467431D-01
     18 -0.339636D+01 -0.290393D-01  0.126218D-01  0.630477D-02  0.208380D-01
     19 -0.627735D+00  0.672869D-01  0.691451D-01 -0.600734D-01  0.115409D+00
     20 -0.105714D+01  0.198539D-01 -0.166523D-01  0.214373D-01  0.449324D-01
     21 -0.223409D+01 -0.229814D-01  0.891663D-01  0.683753D-01  0.152361D+00
     22 -0.426232D-01 -0.349820D+01  0.488930D+00 -0.589899D+00 -0.126639D-01
     23  0.171647D-01  0.559340D+00 -0.266615D+01 -0.127768D+01 -0.203038D-01
     24 -0.419796D-01 -0.640343D+00 -0.123254D+01 -0.223763D+01  0.117212D-01
     25  0.229789D-01 -0.342150D+01 -0.584262D+00 -0.600259D+00  0.335504D-01
     26 -0.411313D-02 -0.613013D+00 -0.242091D+01  0.128795D+01 -0.107775D+00
     27  0.926097D-01 -0.590751D+00  0.121861D+01 -0.245582D+01 -0.623486D-01
     28  0.609861D-01  0.602802D-01 -0.291367D-01 -0.338441D-01 -0.333886D+01
     29 -0.637700D-01 -0.200086D-01 -0.221704D-01  0.448309D-03  0.215457D+00
     30 -0.262584D-01 -0.647791D-01  0.793833D-02 -0.619499D-02 -0.368253D+00
     31  0.414317D-01  0.889087D-01 -0.109622D+00  0.407473D-02 -0.173082D+01
     32 -0.166669D-01 -0.115034D+00  0.294704D-01 -0.413021D-02 -0.100083D+01
     33  0.649835D-01  0.128762D-01 -0.563981D-02 -0.605543D-01  0.650175D+00
     34  0.902908D-02  0.171637D-01  0.170412D-01  0.442631D-02 -0.241515D+01
     35 -0.106292D+00 -0.868967D-02 -0.545023D-02  0.350952D-02  0.142732D+01
     36 -0.261348D-01  0.202976D-03 -0.990389D-02  0.154663D-01  0.594639D+00
     37  0.383045D-01 -0.137865D+00 -0.297344D-01 -0.609660D-01  0.363274D-01
     38 -0.218383D-02 -0.599012D-01  0.136346D+00 -0.786569D-02 -0.319261D-01
     39 -0.322371D-01 -0.712456D-01 -0.618234D-02  0.881783D-01  0.236127D-02
     40  0.699089D-02  0.391027D-01 -0.186711D-01  0.198206D-01 -0.124822D-01
     41 -0.210480D-01  0.362074D-01 -0.676588D-01  0.661489D-01  0.405770D-01
     42 -0.418827D-01 -0.802105D-02  0.607615D-01  0.388248D-02 -0.596021D-01
               11            12            13            14            15 
     11  0.116169D+02
     12 -0.505571D+00  0.126952D+02
     13 -0.131672D+00  0.125568D+00  0.114753D+02
     14 -0.220080D+00 -0.219065D-01 -0.410886D+00  0.814340D+01
     15 -0.539225D-02 -0.242851D+00 -0.114566D+01  0.283290D+01  0.140793D+02
     16  0.815770D-01  0.396553D-01  0.108987D+00  0.551839D-01  0.721566D-01
     17  0.421980D-01  0.785184D-02  0.682438D-01 -0.273272D-01  0.310746D-01
     18 -0.321079D-02 -0.165078D-01  0.715739D-01  0.257302D-01 -0.132915D-01
     19  0.264391D-01  0.865016D-01  0.180925D-01  0.783576D-02 -0.276474D-01
     20  0.173136D+00 -0.862158D-01 -0.532205D-02  0.417078D-02  0.136766D-02
     21 -0.840829D-01 -0.848673D-01 -0.595506D-02  0.187862D-01 -0.282750D-01
     22 -0.485025D-02  0.118611D-02  0.725492D-01 -0.107784D+00 -0.173822D-01
     23  0.354327D-01 -0.273029D-01 -0.135773D+00 -0.650205D-01 -0.190080D-01
     24 -0.223399D-01  0.111457D-01 -0.127339D-01 -0.104189D-01  0.181973D+00
     25 -0.883372D-01 -0.430725D-01 -0.546191D-02 -0.831551D-01 -0.478072D-01
     26  0.547444D-01  0.461090D-01 -0.793833D-01  0.246117D-01  0.682211D-01
     27  0.591057D-01 -0.303949D-01 -0.211554D-01  0.860623D-01  0.163169D+00
     28  0.311327D+00 -0.504278D+00 -0.143074D-01  0.324424D-02 -0.351313D-02
     29 -0.285765D+01 -0.100787D+01  0.170406D-01 -0.180451D-02 -0.510773D-02
     30 -0.110412D+01 -0.157505D+01 -0.110235D-01 -0.214951D-02  0.551765D-02
     31 -0.101845D+01  0.694221D+00  0.388263D-01 -0.140250D-01  0.106664D-01
     32 -0.283862D+01 -0.431618D+00 -0.209885D-01 -0.839679D-02 -0.368492D-02
     33 -0.408325D+00 -0.318317D+01  0.122428D-01 -0.368986D-02 -0.103271D-01
     34  0.115939D+01  0.471971D+00 -0.112205D-01 -0.511781D-01 -0.222523D-01
     35 -0.248189D+01  0.473536D+00 -0.963480D-01  0.255099D-01  0.259566D-01
     36  0.485912D+00 -0.349493D+01 -0.339460D-01  0.245553D-01 -0.481797D-01
     37 -0.892510D-02  0.156045D-01 -0.201001D+01 -0.145970D+01  0.203243D+00
     38 -0.109930D-01 -0.119292D-01 -0.136805D+01 -0.261066D+01 -0.143638D+00
     39 -0.805450D-03 -0.133607D-01  0.233373D+00 -0.190717D+00 -0.373648D+01
     40  0.917597D-02 -0.126940D-01  0.212485D-01  0.438015D-02  0.304439D-01
     41 -0.925567D-02 -0.682651D-02  0.776346D-01 -0.665694D-01  0.112469D-01
     42 -0.298593D-01 -0.189196D-01 -0.218647D-01  0.434933D-02  0.209915D-01
               16            17            18            19            20 
     16  0.207911D+01
     17 -0.140532D+01  0.245021D+01
     18 -0.641909D+00 -0.556370D+00  0.340960D+01
     19  0.713056D-02 -0.559170D-01  0.402062D-01  0.339924D+01
[...]
 ! D1    D(14,1,5,3)           -24.0217         -DE/DX =    0.0                 !
 ! D2    D(14,1,5,13)         -174.9808         -DE/DX =    0.0                 !
 ! D3    D(4,2,3,5)             59.6179         -DE/DX =    0.0                 !
 ! D4    D(4,2,3,8)            -61.0475         -DE/DX =    0.0                 !
 ! D5    D(4,2,3,9)           -176.9016         -DE/DX =    0.0                 !
 ! D6    D(6,2,3,5)           -178.0416         -DE/DX =    0.0                 !
 ! D7    D(6,2,3,8)             61.293          -DE/DX =    0.0                 !
 ! D8    D(6,2,3,9)            -54.5611         -DE/DX =    0.0                 !
 ! D9    D(7,2,3,5)            -63.4109         -DE/DX =    0.0                 !
 ! D10   D(7,2,3,8)            175.9237         -DE/DX =    0.0                 !
 ! D11   D(7,2,3,9)             60.0696         -DE/DX =    0.0                 !
 ! D12   D(3,2,4,10)            57.8686         -DE/DX =    0.0                 !
 ! D13   D(3,2,4,11)           177.9657         -DE/DX =    0.0                 !
 ! D14   D(3,2,4,12)           -61.2036         -DE/DX =    0.0                 !
 ! D15   D(6,2,4,10)           -63.5535         -DE/DX =    0.0                 !
 ! D16   D(6,2,4,11)            56.5435         -DE/DX =    0.0                 !
 ! D17   D(6,2,4,12)           177.3742         -DE/DX =    0.0                 !
 ! D18   D(7,2,4,10)          -178.8696         -DE/DX =    0.0                 !
 ! D19   D(7,2,4,11)           -58.7725         -DE/DX =    0.0                 !
 ! D20   D(7,2,4,12)            62.0582         -DE/DX =    0.0                 !
 ! D21   D(2,3,5,1)             57.8109         -DE/DX =    0.0                 !
 ! D22   D(2,3,5,13)          -154.105          -DE/DX =    0.0                 !
 ! D23   D(8,3,5,1)            179.0704         -DE/DX =    0.0                 !
 ! D24   D(8,3,5,13)           -32.8455         -DE/DX =    0.0                 !
 ! D25   D(9,3,5,1)            -64.7538         -DE/DX =    0.0                 !
 ! D26   D(9,3,5,13)            83.3303         -DE/DX =    0.0                 !
 --------------------------------------------------------------------------------
 GradGradGradGradGradGradGradGradGradGradGradGradGradGradGradGradGradGrad

 Leave Link  103 at Thu Mar  7 05:17:57 2019, MaxMem=   104857600 cpu:               0.1 elap:               0.1
 (Enter /shared/centos7/gaussian/g16/l9999.exe)

 ----------------------------------------------------------------------

 Electric dipole moment (input orientation):
 (Debye = 10**-18 statcoulomb cm , SI units = C m)
                  (au)            (Debye)         (10**-30 SI)
   Tot        0.694282D+00      0.176469D+01      0.588637D+01
   x          0.328882D-01      0.835933D-01      0.278837D+00
   y          0.276390D+00      0.702512D+00      0.234333D+01
   z          0.636046D+00      0.161667D+01      0.539262D+01

 Dipole polarizability, Alpha (input orientation).
 (esu units = cm**3 , SI units = C**2 m**2 J**-1)
 Alpha(0;0):
               (au)            (10**-24 esu)      (10**-40 SI)
   iso        0.541675D+02      0.802679D+01      0.893101D+01
   aniso      0.582952D+01      0.863846D+00      0.961159D+00
   xx         0.522940D+02      0.774917D+01      0.862212D+01
   yx        -0.445394D-01     -0.660006D-02     -0.734355D-02
   yy         0.523003D+02      0.775010D+01      0.862315D+01
   zx        -0.546497D+00     -0.809825D-01     -0.901052D-01
   zy        -0.729902D+00     -0.108160D+00     -0.120345D+00
   zz         0.579081D+02      0.858110D+01      0.954776D+01

 ----------------------------------------------------------------------

 Dipole orientation:
     8          4.23591640         -0.09978927        -28.76619710
     6          5.24452306         -1.95713441        -23.40825123
     6          7.08524874         -0.49887713        -25.11216311
     6          5.25878382         -4.79204673        -23.91680150
     6          6.55036197         -0.78283889        -27.85927603
     1          5.73916675         -1.58615917        -21.44167906
     1          3.32498415         -1.21602984        -23.63259960
     1          9.00420574         -1.16954611        -24.76239671
     1          7.05089308          1.50758536        -24.57001656
     1          7.15454005         -5.56096739        -23.66254786
     1          3.98934993         -5.78979855        -22.64031244
     1          4.68292972         -5.19832349        -25.85230608
     1          8.01514747         -0.56980410        -29.26273660
     1          3.00544720         -0.16990985        -27.43323385

 Electric dipole moment (dipole orientation):
 (Debye = 10**-18 statcoulomb cm , SI units = C m)
                  (au)            (Debye)         (10**-30 SI)
   Tot        0.694282D+00      0.176469D+01      0.588637D+01
   x          0.000000D+00      0.000000D+00      0.000000D+00
   y          0.000000D+00      0.000000D+00      0.000000D+00
   z          0.694282D+00      0.176469D+01      0.588637D+01

 Dipole polarizability, Alpha (dipole orientation).
 (esu units = cm**3 , SI units = C**2 m**2 J**-1)
 Alpha(0;0):
               (au)            (10**-24 esu)      (10**-40 SI)
   iso        0.541675D+02      0.802679D+01      0.893101D+01
   aniso      0.582952D+01      0.863846D+00      0.961159D+00
   xx         0.523585D+02      0.775873D+01      0.863275D+01
   yx         0.310905D+00      0.460713D-01      0.512612D-01
   yy         0.537186D+02      0.796028D+01      0.885700D+01
   zx        -0.739847D+00     -0.109634D+00     -0.121984D+00
   zy        -0.252942D+01     -0.374821D+00     -0.417045D+00
   zz         0.564253D+02      0.836137D+01      0.930328D+01

 ----------------------------------------------------------------------

 Test job not archived.
 1\1\GINC-C0205\Freq\UM062X\6-311+G(2df,2p)\C4H9O1(2)\UNDERKOFFLER.C\07
 -Mar-2019\0\\#P Geom=AllCheck Guess=TCheck SCRF=Check Test GenChk UM06
 2X/6-311+G(2df,2p) Freq\\Gaussian input prepared by ASE\\0,2\O,1.51835
 90868,-6.1304526356,-14.0307312829\C,2.1954470071,-5.9085619332,-11.06
 72618202\C,3.1180696577,-5.5692458116,-12.246643182\C,2.2050008499,-7.
 3918631342,-10.7169503177\C,2.7679678655,-6.2830111475,-13.505188523\H
 ,2.5042589445,-5.3167803191,-10.2044366755\H,1.1713769011,-5.586087290
 6,-11.2840291814\H,4.1446092379,-5.8311064349,-11.9838979228\H,3.10305
 12033,-4.4809002514,-12.4056406568\H,3.21739495,-7.7214162107,-10.4792
 292122\H,1.571226207,-7.6006624753,-9.856111149\H,1.8542271668,-7.9938
 127394,-11.5552417887\H,3.5059010303,-6.4828867283,-14.2671688462\H,0.
 9017641017,-5.8772765153,-13.3389076485\\Version=EM64L-G16RevA.03\Stat
 e=2-A\HF=-232.9743723\S2=0.754457\S2-1=0.\S2A=0.750016\RMSD=1.824e-09\
 RMSF=1.326e-06\ZeroPoint=0.1243389\Thermal=0.1310888\Dipole=0.0328882,
 0.2763896,0.6360462\DipoleDeriv=-0.9849797,0.0374119,-0.4094838,0.1325
 879,-0.3628574,0.0397116,-0.2746991,-0.0070521,-0.5166268,0.1064611,-0
 .0177783,0.0177086,-0.0111338,0.1089222,-0.037128,0.0106357,-0.0203382
 ,0.068715,0.0186899,0.0276877,0.0244836,-0.0435011,0.1582329,-0.069911
 8,-0.0295684,0.008088,0.0611024,0.0705876,-0.0248502,0.0213356,-0.0102
 625,-0.0173484,0.015602,0.0117129,0.0255674,0.0380224,0.7323168,-0.115
 2289,0.3335559,-0.1050879,-0.1474327,0.1137485,0.2576182,0.07362,0.322
 5359,0.0421986,-0.045472,-0.0427172,-0.0274859,-0.0451549,-0.0595262,-
 0.0184906,-0.0763493,-0.1003946,-0.1580584,0.0698811,-0.0361653,0.0487
 106,-0.0142764,0.0477591,-0.0555384,0.0555613,0.0176776,-0.1003761,0.0
 215036,-0.0208822,0.0634373,0.055788,0.0071342,-0.0434343,0.0026739,0.
 0209186,0.054551,0.0072868,0.0152656,-0.0353279,-0.200141,-0.0184648,-
 0.0097654,0.0294759,-0.027509,-0.1095063,0.0744103,-0.0516971,0.020035
 7,0.0133903,0.0206228,-0.0213506,0.0162714,0.0603065,0.0020593,-0.0342
 345,0.1052212,-0.0168442,0.0262718,0.0388253,0.0941329,0.0687563,-0.07
 60616,0.0417124,-0.0210056,-0.0514772,-0.0179808,-0.0067274,-0.0454109
 ,-0.0586404,-0.0847779,-0.0354606,-0.0227902,0.0147846,0.0164251,-0.00
 08267,0.1486405,-0.0167481,0.0602809,-0.0499519,-0.0794029,0.3071338,0
 .0056034,0.0784272,0.0036793,0.2826925,-0.0362137,0.0771066,-0.0415445
 ,0.2461771\Polar=52.2940111,-0.0445394,52.3002794,-0.5464969,-0.729901
 6,57.9081284\Quadrupole=2.3740917,-0.1764288,-2.1976628,-0.4449325,-1.
 2940764,-0.040812\PG=C01 [X(C4H9O1)]\NImag=0\\0.58039931,-0.12975620,0
 .06405762,-0.10959752,0.11376595,0.43561567,-0.00263545,0.00054011,-0.
 00035613,0.54922530,0.00111913,-0.00038405,-0.00019225,-0.01265743,0.5
 0814607,0.00224705,0.00012787,0.00157083,0.04907870,0.04816942,0.52439
 281,-0.02046315,-0.01835628,-0.03452677,-0.12062752,-0.01487103,0.0488
 9326,0.56250909,0.00273730,0.00678788,0.00893632,-0.01364313,-0.080455
 75,0.01969307,-0.03365317,0.51393793,-0.00732808,-0.00904905,-0.007678
 85,0.04169780,0.01598340,-0.13401748,0.04156566,-0.00281053,0.46594164
 ,0.00120269,-0.00034384,-0.00006992,-0.07983343,0.00419891,-0.00172615
 ,-0.00001886,-0.02149143,0.00604799,0.57634656,-0.00018773,-0.00048687
 ,-0.00017314,0.00214703,-0.19682578,0.02398853,-0.00275111,-0.00949599
 ,0.00672869,0.00358466,0.48327465,-0.00080697,-0.00071473,-0.00004285,
 -0.00076301,0.02327224,-0.08594121,0.00105291,0.02908703,-0.00830394,-
 0.00683621,0.02004107,0.57617907,-0.30674061,0.06119895,-0.07209267,0.
 01083781,0.01239445,0.01623878,-0.09280823,-0.01074377,-0.02586119,-0.
 00113175,0.00026125,0.00089288,0.61959373,0.03922489,-0.03259860,-0.01
 751593,0.00528742,0.00263451,-0.00299805,-0.00541849,-0.09407263,-0.06
 300026,-0.00083160,0.00017277,0.00235657,-0.08686869,0.17019298,-0.109
 77054,-0.00338072,-0.13101310,0.00149463,-0.01368783,-0.03174004,-0.02
 126972,-0.08445677,-0.18182891,-0.00015142,0.00077178,0.00049508,-0.03
 628897,0.15533689,0.54715695,0.00149191,-0.00016192,-0.00040558,-0.069
 99146,-0.04128912,-0.06390308,0.00521136,0.01098107,0.01977210,0.00012
 032,0.00037106,0.00107709,-0.00449588,-0.00094382,0.00206895,0.0751175
 0,-0.00061458,0.00036882,0.00031044,-0.04089999,-0.12249127,-0.1126546
 5,0.00232622,0.00376289,0.00724968,-0.01038150,-0.01933913,-0.02575209
 ,-0.00076041,0.00007909,0.00124014,0.04620370,0.13615239,0.00024403,-0
 .00010314,0.00004904,-0.06251245,-0.11283706,-0.21298854,-0.00719358,-
 0.01247358,-0.02146832,0.00321157,0.00589170,0.00808765,0.00456078,0.0
 0136356,-0.00229370,0.06520626,0.12035936,0.23221944,0.00308987,-0.000
 68526,-0.00085729,-0.26722085,0.06726803,-0.05009893,-0.01912728,0.005
 30018,-0.00290385,0.00092759,-0.00008842,0.00001028,-0.00269448,-0.000
 39022,-0.00217299,-0.01064938,0.00262039,-0.00290802,0.29302881,-0.000
 70628,-0.00011138,0.00024160,0.06725976,-0.06716731,0.01434091,-0.0080
 0252,0.00166802,-0.00211815,0.03181780,-0.01126962,0.00808075,0.001319
 46,-0.00001176,0.00014853,-0.01611313,0.00463952,-0.00310462,-0.073578
 76,0.07487850,-0.00084877,0.00023979,-0.00067121,-0.04808301,0.0136761
 1,-0.05947638,0.02569964,-0.00728463,0.00591796,-0.00736178,0.00252295
 ,-0.00210595,0.00014181,-0.00034158,0.00126570,-0.02547632,0.00781348,
 -0.00596746,0.05295791,-0.01824574,0.06566488,0.00127351,-0.00086221,-
 0.00176627,-0.01987605,0.00479494,-0.00330746,-0.27824840,0.06017467,-
 0.06289888,0.00078722,0.00055775,-0.00103095,-0.00941358,0.00223200,-0
 .00098644,0.00080352,0.00019328,-0.00000201,-0.00100847,-0.00101828,0.
 00328901,0.30388776,-0.00177736,-0.00019604,-0.00406934,-0.00670599,0.
 00090895,-0.00199376,0.06249620,-0.06251657,0.01639153,-0.00115621,0.0
 0078058,-0.00072854,-0.01724146,0.00247865,-0.00288897,0.00055481,-0.0
 0001604,-0.00037278,-0.00139445,0.00036275,0.00091071,-0.06577660,0.06
 602212,-0.00284872,-0.00409730,-0.00579396,0.02639105,-0.00599013,0.00
 519818,-0.06143007,0.01478632,-0.06317793,-0.00011110,-0.00125323,0.00
 118335,-0.02769612,0.00898714,-0.00409725,-0.00064334,-0.00050287,0.00
 109966,0.00357806,0.00172517,-0.00395517,0.06599319,-0.01580553,0.0716
 3595,0.00131286,0.00077671,0.00109393,-0.00063560,-0.02182855,0.005342
 66,-0.04814120,0.00494772,-0.00290528,-0.00224442,0.00035041,0.0033178
 6,0.00097789,-0.00773388,-0.00043253,0.00068603,0.00056304,-0.00057587
 ,0.00047189,0.00005238,-0.00110503,-0.00018347,0.02979602,-0.00421226,
 0.04763517,-0.00356895,0.00395820,-0.00065968,0.00073929,-0.00748443,0
 .00184672,0.00681352,-0.27727114,0.04332160,-0.00140912,0.00117858,0.0
 0161380,0.00269702,-0.02097953,-0.00808813,0.00007588,0.00035335,0.000
 49078,-0.00041365,0.00017927,-0.00025456,0.00076782,-0.00770532,0.0014
 2174,-0.00514959,0.30884471,-0.00095604,0.00418532,0.00037599,-0.00092
 111,0.02636767,-0.00503442,-0.00301837,0.03170030,-0.04869344,0.004032
 60,-0.00012282,-0.00400138,0.00264388,-0.03312780,-0.00034661,-0.00097
 719,-0.00012276,0.00056696,0.00017059,-0.00065209,0.00113929,-0.000007
 03,0.00801723,-0.00170086,-0.00112008,-0.03851626,0.05837643,0.0002365
 3,0.00001769,0.00005880,0.00011081,0.00029826,0.00052232,0.00108241,-0
 .00049607,0.00022962,-0.27904856,0.07178542,-0.05407823,-0.00017683,0.
 00011607,-0.00024124,0.00032546,0.00056278,0.00009198,0.00155657,-0.00
 036297,0.00060652,0.00023008,0.00025922,-0.00059052,0.00024918,0.00001
 728,-0.00002648,0.30160231,-0.00009574,0.00018932,-0.00004103,0.032147
 09,-0.01142458,0.00841326,0.00109329,0.00156692,-0.00091824,0.07074793
 ,-0.06791677,0.01658118,-0.00003495,-0.00005691,0.00028488,-0.00003728
 ,0.00127692,-0.00070450,-0.00028062,-0.00647224,0.00185600,-0.00091461
 ,0.00006135,0.00032881,-0.00023922,0.00022311,-0.00049071,-0.07938771,
 0.07672441,0.00081050,-0.00003289,0.00010371,-0.00660923,0.00230478,-0
 .00242193,-0.00106345,-0.00003256,0.00029553,-0.05398673,0.01663854,-0
 .06036634,-0.00055920,-0.00028308,-0.00012974,0.00059621,-0.00015927,0
 .00017108,0.00016638,0.00161721,0.00048643,0.00033621,0.00022454,-0.00
 002693,0.00014475,-0.00012227,0.00008653,0.05967189,-0.02003962,0.0600
 4044,0.00025095,0.00002412,0.00015853,0.00022325,0.00068889,-0.0023919
 3,0.00065224,-0.00010759,-0.00021801,-0.14036710,-0.02861468,0.1250497
 6,-0.00008984,0.00004519,-0.00029422,-0.00013733,-0.00033874,0.0000427
 7,0.00039026,-0.00046598,-0.00015515,0.00048633,0.00018590,-0.00021222
 ,0.00025711,0.00001585,0.00029148,-0.01664370,-0.00571996,0.02446722,0
 .14814853,0.00008519,0.00017706,0.00018569,-0.02050051,-0.00508506,0.0
 2677761,0.00136982,-0.00658858,0.00040766,-0.02765705,-0.05538953,0.03
 754089,0.00001089,0.00006842,-0.00106012,-0.00034870,0.00125503,-0.000
 69095,0.00057898,0.00128586,-0.00015101,0.00006398,0.00001662,-0.00026
 753,-0.00115106,-0.00060187,0.00174280,0.00474059,0.00088412,-0.008261
 33,0.03111128,0.06091766,-0.00046719,0.00009845,-0.00012473,0.00267029
 ,-0.00022415,-0.00470141,-0.00073429,0.00137358,0.00051866,0.12490785,
 0.03872812,-0.21674166,0.00055286,0.00051788,0.00020410,-0.00010436,0.
 00024016,0.00057365,-0.00027444,0.00007799,-0.00018286,0.00011659,-0.0
 0007309,0.00000472,0.00038665,-0.00008920,-0.00024693,-0.00471875,-0.0
 0224561,0.00681928,-0.13755378,-0.04339763,0.23261740,-0.00088052,0.00
 003855,0.00004641,-0.00007123,0.00129389,0.00162805,-0.00020266,-0.000
 40190,-0.00064664,-0.07664075,-0.04762946,-0.06796636,0.00089246,0.000
 00659,0.00023967,0.00100762,0.00050165,0.00009363,0.00031801,-0.000156
 89,0.00067278,-0.00002044,-0.00002430,-0.00004916,0.00001337,0.0001108
 2,0.00019539,-0.00953637,-0.01721450,-0.02400420,0.00683629,0.01178550
 ,0.01500725,0.07829225,0.00048573,0.00033009,0.00007999,-0.01139468,-0
 .01927788,-0.02627433,0.00034437,0.00122801,-0.00103353,-0.04740965,-0
 .12516158,-0.11215026,-0.00074366,0.00013643,0.00035364,0.00035663,-0.
 00601002,0.00249350,0.00052785,0.00136746,-0.00010551,-0.00001070,-0.0
 0005781,0.00010821,0.00018686,0.00019015,0.00015227,0.00253359,0.00520
 151,0.00828579,0.00323003,0.00317294,0.00509022,0.05163825,0.13956525,
 -0.00017528,-0.00002138,0.00012316,0.00346664,0.00461809,0.00768513,0.
 00014567,-0.00040155,0.00061959,-0.06867017,-0.11362112,-0.20843696,0.
 00075088,0.00107059,-0.00153264,0.00054918,0.00228463,0.00045483,0.000
 12576,-0.00078177,0.00041691,0.00007340,0.00002443,-0.00006662,-0.0001
 9199,-0.00023805,0.00005275,-0.00156145,-0.00274604,-0.00523315,-0.009
 16400,-0.01296098,-0.01873229,0.07487847,0.12276116,0.22448432,-0.0307
 9265,0.00693270,0.02073609,-0.00031908,-0.00140025,-0.00135625,0.00866
 233,-0.00243176,-0.00754631,0.00003660,-0.00001351,0.00005964,-0.17993
 533,0.04197615,0.13659955,0.00039114,0.00006660,-0.00051753,0.00027248
 ,-0.00012394,-0.00010592,0.00065590,0.00053375,0.00081538,-0.00005657,
 -0.00035744,-0.00001043,0.00001655,0.00000892,0.00003732,-0.00000055,0
 .00004088,-0.00000670,-0.00006635,0.00012320,0.00000128,0.20543046,0.0
 0258408,-0.00099004,-0.00317568,-0.00199297,-0.00171594,0.00048838,0.0
 0959921,0.00076715,-0.01259477,-0.00008614,0.00016058,0.00013495,0.033
 80212,-0.02572685,-0.04039858,0.00047560,0.00030032,-0.00034970,0.0000
 8563,-0.00002078,-0.00002247,-0.00026458,0.00029551,0.00053652,-0.0001
 2534,0.00013658,0.00119767,0.00006247,0.00001988,0.00005396,0.00001029
 ,0.00003154,0.00000296,-0.00007927,0.00010237,-0.00000217,-0.04501810,
 0.02423204,-0.01392632,0.00485937,0.01345337,-0.00231855,-0.00324320,-
 0.00290399,0.01515335,0.00219248,-0.00850478,0.00000896,-0.00050930,0.
 00012228,0.14986979,-0.05866253,-0.20873219,0.00101840,0.00033252,-0.0
 0119699,0.00022900,-0.00006403,0.00013788,-0.00020346,0.00039682,0.000
 25433,0.00012008,-0.00048885,-0.00048381,-0.00010236,0.00004638,-0.000
 08151,-0.00000330,0.00017250,0.00000322,0.00008728,0.00012439,0.000111
 99,-0.14567417,0.05447976,0.20745683,-0.22774524,0.08063688,0.19757839
 ,0.00081350,-0.00001011,-0.00116702,0.00151989,-0.00117212,0.00099508,
 -0.00013611,0.00022732,0.00002132,-0.03481533,0.01329840,0.03120526,0.
 00011919,-0.00004243,0.00025845,0.00064499,0.00007934,-0.00023168,0.00
 062610,0.00025047,0.00101584,-0.00034224,-0.00033873,-0.00029721,-0.00
 000444,-0.00007266,-0.00000766,-0.00000644,-0.00012979,0.00021802,0.00
 005830,0.00013219,-0.00022839,-0.00429493,0.00094701,-0.00425869,0.263
 56275,0.09047053,-0.04110202,-0.09769293,-0.00032598,0.00062249,0.0000
 7503,-0.00099003,0.00068183,0.00144197,0.00041724,0.00031810,0.0006371
 7,0.00470880,-0.00231658,-0.00417475,-0.00012478,-0.00033188,0.0000374
 5,0.00045033,0.00067169,-0.00061354,0.00006254,-0.00043475,0.00002267,
 -0.00044548,-0.00102167,-0.00033084,-0.00014663,-0.00027705,-0.0001937
 9,-0.00006462,-0.00014421,-0.00009968,0.00013107,-0.00078692,0.0000141
 6,-0.00033721,0.00240763,0.00036369,-0.09380577,0.04171334,0.24342385,
 -0.10587753,-0.30596705,-0.00323562,0.00178292,0.00037843,-0.00327423,
 -0.00030948,0.00038027,0.00070453,0.00036824,-0.00012715,-0.01315349,0
 .00629661,0.01259234,0.00122168,-0.00063878,0.00069269,0.00197755,-0.0
 0126575,-0.00267003,0.00039409,-0.00003325,-0.00055746,0.00013711,-0.0
 0023765,-0.00009050,0.00013790,-0.00032474,0.00025661,-0.00001715,-0.0
 0003760,-0.00001118,-0.00018257,0.00011445,0.00005299,-0.00303193,-0.0
 0035083,0.00036337,-0.22510172,0.10051340,0.29470667\\-0.00000047,-0.0
 0000213,0.00000004,0.00000042,0.00000118,-0.00000043,0.00000030,-0.000
 00078,-0.00000113,-0.00000029,0.00000159,0.00000139,-0.00000033,-0.000
 00215,-0.00000009,0.00000099,0.00000208,-0.00000123,0.00000056,0.00000
 146,-0.00000055,0.00000023,-0.00000101,-0.00000103,0.00000086,-0.00000
 098,-0.00000242,-0.00000039,0.00000135,0.00000155,-0.00000016,0.000003
 01,0.00000183,-0.00000082,0.00000077,0.00000226,-0.00000074,-0.0000034
 8,-0.00000005,-0.00000016,-0.00000093,-0.00000013\\\@


 SCIENCE AND PEACE WILL TRIUMPH OVER IGNORANCE AND WAR

                          -- PASTEUR
 Job cpu time:       0 days  1 hours 20 minutes 16.1 seconds.
 Elapsed time:       0 days  1 hours 20 minutes 16.1 seconds.
 File lengths (MBytes):  RWF=   1376 Int=      0 D2E=      0 Chk=     32 Scr=     32
 Normal termination of Gaussian 16 at Thu Mar  7 05:17:57 2019.
