 Entering Gaussian System, Link 0=g16
 Input=OJWHOIQFDAGZNF-UHFFFAOYSA-N_GeoFreq_a1.com
 Output=OJWHOIQFDAGZNF-UHFFFAOYSA-N_GeoFreq_a1.log
 Initial command:
 /shared/centos7/gaussian/g16/l1.exe "/scratch/underkoffler.c/gaussian_scratch/Gau-42557.inp" -scrdir="/scratch/underkoffler.c/gaussian_scratch/"
 Entering Link 1 = /shared/centos7/gaussian/g16/l1.exe PID=     42558.
  
 Copyright (c) 1988,1990,1992,1993,1995,1998,2003,2009,2016,
            Gaussian, Inc.  All Rights Reserved.
  
 This is part of the Gaussian(R) 16 program.  It is based on
 the Gaussian(R) 09 system (copyright 2009, Gaussian, Inc.),
 the Gaussian(R) 03 system (copyright 2003, Gaussian, Inc.),
 the Gaussian(R) 98 system (copyright 1998, Gaussian, Inc.),
 the Gaussian(R) 94 system (copyright 1995, Gaussian, Inc.),
 the Gaussian 92(TM) system (copyright 1992, Gaussian, Inc.),
 the Gaussian 90(TM) system (copyright 1990, Gaussian, Inc.),
 the Gaussian 88(TM) system (copyright 1988, Gaussian, Inc.),
 the Gaussian 86(TM) system (copyright 1986, Carnegie Mellon
 University), and the Gaussian 82(TM) system (copyright 1983,
 Carnegie Mellon University). Gaussian is a federally registered
 trademark of Gaussian, Inc.
  
 This software contains proprietary and confidential information,
 including trade secrets, belonging to Gaussian, Inc.
  
 This software is provided under written license and may be
 used, copied, transmitted, or stored only in accord with that
 written license.
  
 The following legend is applicable only to US Government
 contracts under FAR:
  
                    RESTRICTED RIGHTS LEGEND
  
 Use, reproduction and disclosure by the US Government is
 subject to restrictions as set forth in subparagraphs (a)
 and (c) of the Commercial Computer Software - Restricted
 Rights clause in FAR 52.227-19.
  
 Gaussian, Inc.
 340 Quinnipiac St., Bldg. 40, Wallingford CT 06492
  
  
 ---------------------------------------------------------------
 Warning -- This program may not be used in any manner that
 competes with the business of Gaussian, Inc. or will provide
 assistance to any competitor of Gaussian, Inc.  The licensee
 of this program is prohibited from giving any competitor of
 Gaussian, Inc. access to this program.  By using this program,
 the user acknowledges that Gaussian, Inc. is engaged in the
 business of creating and licensing software in the field of
 computational chemistry and represents and warrants to the
 licensee that it is not a competitor of Gaussian, Inc. and that
 it will not use this program in any manner prohibited above.
 ---------------------------------------------------------------
  

 Cite this work as:
 Gaussian 16, Revision A.03,
 M. J. Frisch, G. W. Trucks, H. B. Schlegel, G. E. Scuseria, 
 M. A. Robb, J. R. Cheeseman, G. Scalmani, V. Barone, 
 G. A. Petersson, H. Nakatsuji, X. Li, M. Caricato, A. V. Marenich, 
 J. Bloino, B. G. Janesko, R. Gomperts, B. Mennucci, H. P. Hratchian, 
 J. V. Ortiz, A. F. Izmaylov, J. L. Sonnenberg, D. Williams-Young, 
 F. Ding, F. Lipparini, F. Egidi, J. Goings, B. Peng, A. Petrone, 
 T. Henderson, D. Ranasinghe, V. G. Zakrzewski, J. Gao, N. Rega, 
 G. Zheng, W. Liang, M. Hada, M. Ehara, K. Toyota, R. Fukuda, 
 J. Hasegawa, M. Ishida, T. Nakajima, Y. Honda, O. Kitao, H. Nakai, 
 T. Vreven, K. Throssell, J. A. Montgomery, Jr., J. E. Peralta, 
 F. Ogliaro, M. J. Bearpark, J. J. Heyd, E. N. Brothers, K. N. Kudin, 
 V. N. Staroverov, T. A. Keith, R. Kobayashi, J. Normand, 
 K. Raghavachari, A. P. Rendell, J. C. Burant, S. S. Iyengar, 
 J. Tomasi, M. Cossi, J. M. Millam, M. Klene, C. Adamo, R. Cammi, 
 J. W. Ochterski, R. L. Martin, K. Morokuma, O. Farkas, 
 J. B. Foresman, and D. J. Fox, Gaussian, Inc., Wallingford CT, 2016.
 
 ******************************************
 Gaussian 16:  EM64L-G16RevA.03 25-Dec-2016
                10-Mar-2019 
 ******************************************
 %nprocshared=20
 Will use up to   20 processors via shared memory.
 %mem=5GB
 ----------------------------------------------------------------------
 #p m062x/6-311+g(2df,2p) opt=(calcfc,verytight,gdiis,maxcycles=900) fr
 eq iop(7/33=1,2/16=3)
 ----------------------------------------------------------------------

 Warning!  Use of Opt=GDIIS is deprecated since it is seldom a good choice.

 1/6=900,7=1,10=4,18=20,19=11,26=3,38=1/1,3;
 2/9=110,12=2,16=3,17=6,18=5,40=1/2;
 3/5=4,6=6,7=214,11=2,25=1,30=1,71=2,74=-55,140=1/1,2,3;
 4//1;
 5/5=2,38=5/2;
 8/6=4,10=90,11=11/1;
 11/6=1,8=1,9=11,15=111,16=1/1,2,10;
 10/6=1,13=1/2;
 6/7=2,8=2,9=2,10=2,28=1/1;
 7/10=1,18=20,25=1,33=1/1,2,3,16;
 1/6=900,7=1,10=4,18=20,19=11,26=3/3(2);
 2/9=110,16=3/2;
 99//99;
 2/9=110,16=3/2;
 3/5=4,6=6,7=214,11=2,25=1,30=1,71=1,74=-55/1,2,3;
 4/5=5,16=3,69=1/1;
 5/5=2,38=5/2;
 7/33=1/1,2,3,16;
 1/6=900,7=1,18=20,19=11,26=3/3(-5);
 2/9=110,16=3/2;
 6/7=2,8=2,9=2,10=2,19=2,28=1/1;
 99/9=1/99;
 Leave Link    1 at Sun Mar 10 21:24:55 2019, MaxMem=   671088640 cpu:              16.4 elap:               0.9
 (Enter /shared/centos7/gaussian/g16/l101.exe)
 ------------------------------
 Gaussian input prepared by ASE
 ------------------------------
 Symbolic Z-matrix:
 Charge =  0 Multiplicity = 2
 O                     1.13633  -0.81573   0.82795 
 O                     1.10279   0.25723  -1.23197 
 C                    -0.9286   -0.84862  -0.48411 
 C                    -1.11001  -2.33316  -0.29657 
 C                     0.50032  -0.39375  -0.40582 
 C                     2.45894  -0.32623   0.94567 
 H                    -1.5158   -0.31247   0.31062 
 H                    -1.36041  -0.5352   -1.46949 
 H                    -2.19637  -2.59957  -0.31129 
 H                    -0.68428  -2.66504   0.68318 
 H                    -0.6015   -2.90345  -1.11448 
 H                     2.9506   -0.14767  -0.04445 
 H                     3.02541  -0.93535   1.69081 
 
 Add atom      6 valence  3 ND=      2 dihedral       1      6     12     13
 ITRead=  0  0  0  0  0  0  0  0  0  0  0  0  0
 MicOpt= -1 -1 -1 -1 -1 -1 -1 -1 -1 -1 -1 -1 -1
 NAtoms=     13 NQM=       13 NQMF=       0 NMMI=      0 NMMIF=      0
                NMic=       0 NMicF=      0.
                    Isotopes and Nuclear Properties:
 (Nuclear quadrupole moments (NQMom) in fm**2, nuclear magnetic moments (NMagM)
  in nuclear magnetons)

  Atom         1           2           3           4           5           6           7           8           9          10
 IAtWgt=          16          16          12          12          12          12           1           1           1           1
 AtmWgt=  15.9949146  15.9949146  12.0000000  12.0000000  12.0000000  12.0000000   1.0078250   1.0078250   1.0078250   1.0078250
 NucSpn=           0           0           0           0           0           0           1           1           1           1
 AtZEff=  -0.0000000  -0.0000000  -0.0000000  -0.0000000  -0.0000000  -0.0000000  -0.0000000  -0.0000000  -0.0000000  -0.0000000
 NQMom=    0.0000000   0.0000000   0.0000000   0.0000000   0.0000000   0.0000000   0.0000000   0.0000000   0.0000000   0.0000000
 NMagM=    0.0000000   0.0000000   0.0000000   0.0000000   0.0000000   0.0000000   2.7928460   2.7928460   2.7928460   2.7928460
 AtZNuc=   8.0000000   8.0000000   6.0000000   6.0000000   6.0000000   6.0000000   1.0000000   1.0000000   1.0000000   1.0000000

  Atom        11          12          13
 IAtWgt=           1           1           1
 AtmWgt=   1.0078250   1.0078250   1.0078250
 NucSpn=           1           1           1
 AtZEff=  -0.0000000  -0.0000000  -0.0000000
 NQMom=    0.0000000   0.0000000   0.0000000
 NMagM=    2.7928460   2.7928460   2.7928460
 AtZNuc=   1.0000000   1.0000000   1.0000000
 Leave Link  101 at Sun Mar 10 21:24:55 2019, MaxMem=   671088640 cpu:               5.6 elap:               0.3
 (Enter /shared/centos7/gaussian/g16/l103.exe)

 GradGradGradGradGradGradGradGradGradGradGradGradGradGradGradGradGradGrad
 Berny optimization.
 Initialization pass.
                           ----------------------------
                           !    Initial Parameters    !
                           ! (Angstroms and Degrees)  !
 --------------------------                            --------------------------
 ! Name  Definition              Value          Derivative Info.                !
 --------------------------------------------------------------------------------
 ! R1    R(1,5)                  1.4508         calculate D2E/DX2 analytically  !
 ! R2    R(1,6)                  1.4152         calculate D2E/DX2 analytically  !
 ! R3    R(2,5)                  1.2121         calculate D2E/DX2 analytically  !
 ! R4    R(3,4)                  1.5073         calculate D2E/DX2 analytically  !
 ! R5    R(3,5)                  1.5016         calculate D2E/DX2 analytically  !
 ! R6    R(3,7)                  1.1242         calculate D2E/DX2 analytically  !
 ! R7    R(3,8)                  1.1206         calculate D2E/DX2 analytically  !
 ! R8    R(4,9)                  1.1186         calculate D2E/DX2 analytically  !
 ! R9    R(4,10)                 1.1186         calculate D2E/DX2 analytically  !
 ! R10   R(4,11)                 1.1193         calculate D2E/DX2 analytically  !
 ! R11   R(6,12)                 1.1198         calculate D2E/DX2 analytically  !
 ! R12   R(6,13)                 1.1168         calculate D2E/DX2 analytically  !
 ! A1    A(5,1,6)              112.3246         calculate D2E/DX2 analytically  !
 ! A2    A(4,3,5)              113.9783         calculate D2E/DX2 analytically  !
 ! A3    A(4,3,7)              108.5958         calculate D2E/DX2 analytically  !
 ! A4    A(4,3,8)              109.7856         calculate D2E/DX2 analytically  !
 ! A5    A(5,3,7)              108.4043         calculate D2E/DX2 analytically  !
 ! A6    A(5,3,8)              109.1363         calculate D2E/DX2 analytically  !
 ! A7    A(7,3,8)              106.6764         calculate D2E/DX2 analytically  !
 ! A8    A(3,4,9)              110.4757         calculate D2E/DX2 analytically  !
 ! A9    A(3,4,10)             110.8165         calculate D2E/DX2 analytically  !
 ! A10   A(3,4,11)             110.8686         calculate D2E/DX2 analytically  !
 ! A11   A(9,4,10)             108.0873         calculate D2E/DX2 analytically  !
 ! A12   A(9,4,11)             108.074          calculate D2E/DX2 analytically  !
 ! A13   A(10,4,11)            108.4185         calculate D2E/DX2 analytically  !
 ! A14   A(1,5,2)              121.1933         calculate D2E/DX2 analytically  !
 ! A15   A(1,5,3)              111.9253         calculate D2E/DX2 analytically  !
 ! A16   A(2,5,3)              126.8787         calculate D2E/DX2 analytically  !
 ! A17   A(1,6,12)             113.075          calculate D2E/DX2 analytically  !
 ! A18   A(1,6,13)             109.9325         calculate D2E/DX2 analytically  !
 ! A19   A(12,6,13)            117.015          calculate D2E/DX2 analytically  !
 ! D1    D(6,1,5,2)              2.8682         calculate D2E/DX2 analytically  !
 ! D2    D(6,1,5,3)           -176.5828         calculate D2E/DX2 analytically  !
 ! D3    D(5,1,6,12)           -27.5241         calculate D2E/DX2 analytically  !
 ! D4    D(5,1,6,13)          -160.3426         calculate D2E/DX2 analytically  !
 ! D5    D(5,3,4,9)            176.9918         calculate D2E/DX2 analytically  !
 ! D6    D(5,3,4,10)            57.2223         calculate D2E/DX2 analytically  !
 ! D7    D(5,3,4,11)           -63.2216         calculate D2E/DX2 analytically  !
 ! D8    D(7,3,4,9)             56.0464         calculate D2E/DX2 analytically  !
 ! D9    D(7,3,4,10)           -63.7231         calculate D2E/DX2 analytically  !
 ! D10   D(7,3,4,11)           175.833          calculate D2E/DX2 analytically  !
 ! D11   D(8,3,4,9)            -60.2366         calculate D2E/DX2 analytically  !
 ! D12   D(8,3,4,10)           179.9939         calculate D2E/DX2 analytically  !
 ! D13   D(8,3,4,11)            59.55           calculate D2E/DX2 analytically  !
 ! D14   D(4,3,5,1)            -54.579          calculate D2E/DX2 analytically  !
 ! D15   D(4,3,5,2)            126.0081         calculate D2E/DX2 analytically  !
 ! D16   D(7,3,5,1)             66.473          calculate D2E/DX2 analytically  !
 ! D17   D(7,3,5,2)           -112.9398         calculate D2E/DX2 analytically  !
 ! D18   D(8,3,5,1)           -177.7046         calculate D2E/DX2 analytically  !
 ! D19   D(8,3,5,2)              2.8825         calculate D2E/DX2 analytically  !
 ! D20   D(1,6,12,13)         -129.2833         calculate D2E/DX2 analytically  !
 --------------------------------------------------------------------------------
 Trust Radius=3.00D-01 FncErr=1.00D-07 GrdErr=1.00D-06 EigMax=2.50D+02 EigMin=1.00D-04
 Number of steps in this run=    100 maximum allowed number of steps=    100.
 GradGradGradGradGradGradGradGradGradGradGradGradGradGradGradGradGradGrad

 Leave Link  103 at Sun Mar 10 21:24:55 2019, MaxMem=   671088640 cpu:               0.2 elap:               0.0
 (Enter /shared/centos7/gaussian/g16/l202.exe)
                          Input orientation:                          
 ---------------------------------------------------------------------
 Center     Atomic      Atomic             Coordinates (Angstroms)
 Number     Number       Type             X           Y           Z
 ---------------------------------------------------------------------
      1          8           0        1.136329   -0.815728    0.827947
      2          8           0        1.102789    0.257230   -1.231972
      3          6           0       -0.928596   -0.848616   -0.484106
      4          6           0       -1.110012   -2.333160   -0.296571
      5          6           0        0.500317   -0.393752   -0.405822
      6          6           0        2.458936   -0.326231    0.945675
      7          1           0       -1.515802   -0.312468    0.310623
      8          1           0       -1.360411   -0.535197   -1.469486
      9          1           0       -2.196370   -2.599574   -0.311292
     10          1           0       -0.684285   -2.665041    0.683181
     11          1           0       -0.601501   -2.903453   -1.114479
     12          1           0        2.950598   -0.147668   -0.044455
     13          1           0        3.025413   -0.935349    1.690812
 ---------------------------------------------------------------------
                    Distance matrix (angstroms):
                    1          2          3          4          5
     1  O    0.000000
     2  O    2.322850   0.000000
     3  C    2.446729   2.430787   0.000000
     4  C    2.934823   3.532928   1.507299   0.000000
     5  C    1.450780   1.212136   1.501607   2.523173   0.000000
     6  C    1.415188   2.630913   3.713830   4.278823   2.380608
     7  H    2.748580   3.092115   1.124215   2.148615   2.141176
     8  H    3.404498   2.598405   1.120566   2.161272   2.147951
     9  H    3.948019   4.460206   2.168633   1.118645   3.485213
    10  H    2.599144   3.924425   2.172935   1.118617   2.783517
    11  H    3.339411   3.592815   2.174101   1.119281   2.831042
    12  H    2.121076   2.233503   3.966456   4.618278   2.488981
    13  H    2.080261   3.696132   4.513534   4.796385   3.326457
                    6          7          8          9         10
     6  C    0.000000
     7  H    4.025174   0.000000
     8  H    4.523724   1.800707   0.000000
     9  H    5.331035   2.465929   2.510358   0.000000
    10  H    3.926675   2.522860   3.102798   1.810984   0.000000
    11  H    4.500287   3.095168   2.512092   1.811370   1.815289
    12  H    1.119809   4.483522   4.556939   5.707393   4.480959
    13  H    1.116760   4.787018   5.420614   5.834817   4.215331
                   11         12         13
    11  H    0.000000
    12  H    4.621332   0.000000
    13  H    4.989749   1.907142   0.000000
 Stoichiometry    C4H7O2(2)
 Framework group  C1[X(C4H7O2)]
 Deg. of freedom    33
 Full point group                 C1      NOp   1
 Largest Abelian subgroup         C1      NOp   1
 Largest concise Abelian subgroup C1      NOp   1
                         Standard orientation:                         
 ---------------------------------------------------------------------
 Center     Atomic      Atomic             Coordinates (Angstroms)
 Number     Number       Type             X           Y           Z
 ---------------------------------------------------------------------
      1          8           0        0.793917   -0.773653    0.242004
      2          8           0        0.696160    1.493667   -0.253306
      3          6           0       -1.357402    0.378696    0.416359
      4          6           0       -2.076849   -0.692676   -0.362427
      5          6           0        0.103784    0.493362    0.089847
      6          6           0        2.185475   -0.658901    0.011451
      7          1           0       -1.459448    0.154285    1.513211
      8          1           0       -1.851278    1.369603    0.243560
      9          1           0       -3.144317   -0.763939   -0.035623
     10          1           0       -1.597244   -1.690481   -0.202211
     11          1           0       -2.063624   -0.465838   -1.458402
     12          1           0        2.447268    0.176686   -0.686569
     13          1           0        2.617980   -1.663314   -0.214924
 ---------------------------------------------------------------------
 Rotational constants (GHZ):           6.3197799           2.5922279           1.9936190
 Leave Link  202 at Sun Mar 10 21:24:55 2019, MaxMem=   671088640 cpu:               0.3 elap:               0.0
 (Enter /shared/centos7/gaussian/g16/l301.exe)
 Standard basis: 6-311+G(2df,2p) (5D, 7F)
 Ernie: Thresh=  0.10000D-02 Tol=  0.10000D-05 Strict=F.
 There are   297 symmetry adapted cartesian basis functions of A   symmetry.
 There are   267 symmetry adapted basis functions of A   symmetry.
   267 basis functions,   389 primitive gaussians,   297 cartesian basis functions
    24 alpha electrons       23 beta electrons
       nuclear repulsion energy       233.5350176537 Hartrees.
 IExCor= 4336 DFT=T Ex+Corr=M062X ExCW=0 ScaHFX=  0.540000
 ScaDFX=  1.000000  1.000000  1.000000  1.000000 ScalE2=  1.000000  1.000000
 IRadAn=      5 IRanWt=     -1 IRanGd=            0 ICorTp=0 IEmpDi=  4
 NAtoms=   13 NActive=   13 NUniq=   13 SFac= 1.00D+00 NAtFMM=   60 NAOKFM=F Big=F
 Integral buffers will be    131072 words long.
 Raffenetti 2 integral format.
 Two-electron integral symmetry is turned on.
 Leave Link  301 at Sun Mar 10 21:24:56 2019, MaxMem=   671088640 cpu:               1.5 elap:               0.1
 (Enter /shared/centos7/gaussian/g16/l302.exe)
 NPDir=0 NMtPBC=     1 NCelOv=     1 NCel=       1 NClECP=     1 NCelD=      1
         NCelK=      1 NCelE2=     1 NClLst=     1 CellRange=     0.0.
 One-electron integrals computed using PRISM.
 One-electron integral symmetry used in STVInt
 NBasis=   267 RedAO= T EigKep=  3.04D-05  NBF=   267
 NBsUse=   267 1.00D-06 EigRej= -1.00D+00 NBFU=   267
 Precomputing XC quadrature grid using
 IXCGrd= 4 IRadAn=           5 IRanWt=          -1 IRanGd=           0 AccXCQ= 0.00D+00.
 Generated NRdTot=       0 NPtTot=           0 NUsed=           0 NTot=          32
 NSgBfM=   297   297   297   297   297 MxSgAt=    13 MxSgA2=    13.
 Leave Link  302 at Sun Mar 10 21:24:56 2019, MaxMem=   671088640 cpu:               8.6 elap:               0.5
 (Enter /shared/centos7/gaussian/g16/l303.exe)
 DipDrv:  MaxL=1.
 Leave Link  303 at Sun Mar 10 21:24:56 2019, MaxMem=   671088640 cpu:               0.8 elap:               0.1
 (Enter /shared/centos7/gaussian/g16/l401.exe)
 ExpMin= 4.38D-02 ExpMax= 8.59D+03 ExpMxC= 1.30D+03 IAcc=3 IRadAn=         5 AccDes= 0.00D+00
 Harris functional with IExCor= 1009 and IRadAn=       5 diagonalized for initial guess.
 HarFok:  IExCor= 1009 AccDes= 0.00D+00 IRadAn=         5 IDoV= 1 UseB2=F ITyADJ=14
 ICtDFT=  3500011 ScaDFX=  1.000000  1.000000  1.000000  1.000000
 FoFCou: FMM=F IPFlag=           0 FMFlag=      100000 FMFlg1=           0
         NFxFlg=           0 DoJE=T BraDBF=F KetDBF=T FulRan=T
         wScrn=  0.000000 ICntrl=       500 IOpCl=  0 I1Cent=   200000004 NGrid=           0
         NMat0=    1 NMatS0=      1 NMatT0=    0 NMatD0=    1 NMtDS0=    0 NMtDT0=    0
 Petite list used in FoFCou.
 Harris En= -306.843651263072    
 JPrj=0 DoOrth=F DoCkMO=F.
 Initial guess <Sx>= 0.0000 <Sy>= 0.0000 <Sz>= 0.5000 <S**2>= 0.7500 S= 0.5000
 Leave Link  401 at Sun Mar 10 21:24:57 2019, MaxMem=   671088640 cpu:              25.1 elap:               1.3
 (Enter /shared/centos7/gaussian/g16/l502.exe)
 Integral symmetry usage will be decided dynamically.
 UHF open shell SCF:
 Using DIIS extrapolation, IDIIS=  1040.
 NGot=   671088640 LenX=   670903575 LenY=   670814925
 Requested convergence on RMS density matrix=1.00D-08 within 128 cycles.
 Requested convergence on MAX density matrix=1.00D-06.
 Requested convergence on             energy=1.00D-06.
 No special actions if energy rises.
 Fock matrices will be formed incrementally for  20 cycles.

 Cycle   1  Pass 1  IDiag  1:
 FoFJK:  IHMeth= 1 ICntrl=       0 DoSepK=F KAlg= 0 I1Cent=           0 FoldK=F
 IRaf= 960000000 NMat=       1 IRICut=       1 DoRegI=T DoRafI=F ISym2E= 0 IDoP0=0 IntGTp=1.
 FoFCou: FMM=F IPFlag=           0 FMFlag=      100000 FMFlg1=           0
         NFxFlg=           0 DoJE=F BraDBF=F KetDBF=F FulRan=T
         wScrn=  0.000000 ICntrl=         0 IOpCl=  1 I1Cent=           0 NGrid=           0
         NMat0=    1 NMatS0=      1 NMatT0=    0 NMatD0=    1 NMtDS0=    0 NMtDT0=    0
 Symmetry not used in FoFCou.
 E= -306.811036183050    
 DIIS: error= 1.78D-02 at cycle   1 NSaved=   1.
 NSaved= 1 IEnMin= 1 EnMin= -306.811036183050     IErMin= 1 ErrMin= 1.78D-02
 ErrMax= 1.78D-02  0.00D+00 EMaxC= 1.00D-01 BMatC= 9.78D-01 BMatP= 9.78D-01
 IDIUse=3 WtCom= 8.22D-01 WtEn= 1.78D-01
 Coeff-Com:  0.100D+01
 Coeff-En:   0.100D+01
 Coeff:      0.100D+01
 Gap=     0.280 Goal=   None    Shift=    0.000
 Gap=     0.271 Goal=   None    Shift=    0.000
 GapD=    0.271 DampG=1.000 DampE=0.500 DampFc=0.5000 IDamp=-1.
 Damping current iteration by 5.00D-01
 RMSDP=2.43D-03 MaxDP=1.04D-01              OVMax= 1.63D-01

 Cycle   2  Pass 1  IDiag  1:
 RMSU=  1.20D-03    CP:  9.82D-01
 E= -306.891765309377     Delta-E=       -0.080729126327 Rises=F Damp=T
 DIIS: error= 6.19D-03 at cycle   2 NSaved=   2.
 NSaved= 2 IEnMin= 2 EnMin= -306.891765309377     IErMin= 2 ErrMin= 6.19D-03
 ErrMax= 6.19D-03  0.00D+00 EMaxC= 1.00D-01 BMatC= 9.58D-02 BMatP= 9.78D-01
 IDIUse=3 WtCom= 9.38D-01 WtEn= 6.19D-02
 Coeff-Com:  0.143D-01 0.986D+00
 Coeff-En:   0.438D-01 0.956D+00
 Coeff:      0.161D-01 0.984D+00
 Gap=     0.270 Goal=   None    Shift=    0.000
 Gap=     0.345 Goal=   None    Shift=    0.000
 RMSDP=9.11D-04 MaxDP=5.39D-02 DE=-8.07D-02 OVMax= 1.11D-01

 Cycle   3  Pass 1  IDiag  1:
 RMSU=  8.88D-04    CP:  9.62D-01  9.73D-01
 E= -306.978003211447     Delta-E=       -0.086237902069 Rises=F Damp=F
 DIIS: error= 6.35D-03 at cycle   3 NSaved=   3.
 NSaved= 3 IEnMin= 3 EnMin= -306.978003211447     IErMin= 2 ErrMin= 6.19D-03
 ErrMax= 6.35D-03  0.00D+00 EMaxC= 1.00D-01 BMatC= 7.03D-02 BMatP= 9.58D-02
 IDIUse=3 WtCom= 9.36D-01 WtEn= 6.35D-02
 Coeff-Com: -0.789D-01 0.485D+00 0.593D+00
 Coeff-En:   0.000D+00 0.000D+00 0.100D+01
 Coeff:     -0.739D-01 0.455D+00 0.619D+00
 Gap=     0.281 Goal=   None    Shift=    0.000
 Gap=     0.326 Goal=   None    Shift=    0.000
 RMSDP=4.66D-04 MaxDP=3.00D-02 DE=-8.62D-02 OVMax= 5.17D-02

 Cycle   4  Pass 1  IDiag  1:
 RMSU=  4.26D-04    CP:  9.58D-01  1.09D+00  8.71D-01
 E= -306.988934241829     Delta-E=       -0.010931030382 Rises=F Damp=F
 DIIS: error= 2.45D-03 at cycle   4 NSaved=   4.
 NSaved= 4 IEnMin= 4 EnMin= -306.988934241829     IErMin= 4 ErrMin= 2.45D-03
 ErrMax= 2.45D-03  0.00D+00 EMaxC= 1.00D-01 BMatC= 1.29D-02 BMatP= 7.03D-02
 IDIUse=3 WtCom= 9.75D-01 WtEn= 2.45D-02
 Coeff-Com: -0.344D-01 0.808D-01 0.333D+00 0.621D+00
 Coeff-En:   0.000D+00 0.000D+00 0.136D+00 0.864D+00
 Coeff:     -0.335D-01 0.789D-01 0.328D+00 0.627D+00
 Gap=     0.281 Goal=   None    Shift=    0.000
 Gap=     0.326 Goal=   None    Shift=    0.000
 RMSDP=1.48D-04 MaxDP=5.38D-03 DE=-1.09D-02 OVMax= 1.35D-02

 Cycle   5  Pass 1  IDiag  1:
 RMSU=  9.39D-05    CP:  9.56D-01  1.07D+00  9.46D-01  7.96D-01
 E= -306.991532451388     Delta-E=       -0.002598209559 Rises=F Damp=F
 DIIS: error= 4.58D-04 at cycle   5 NSaved=   5.
 NSaved= 5 IEnMin= 5 EnMin= -306.991532451388     IErMin= 5 ErrMin= 4.58D-04
 ErrMax= 4.58D-04  0.00D+00 EMaxC= 1.00D-01 BMatC= 3.62D-04 BMatP= 1.29D-02
 IDIUse=3 WtCom= 9.95D-01 WtEn= 4.58D-03
 Coeff-Com: -0.552D-02 0.163D-02 0.732D-01 0.193D+00 0.738D+00
 Coeff-En:   0.000D+00 0.000D+00 0.000D+00 0.000D+00 0.100D+01
 Coeff:     -0.549D-02 0.163D-02 0.729D-01 0.192D+00 0.739D+00
 Gap=     0.282 Goal=   None    Shift=    0.000
 Gap=     0.327 Goal=   None    Shift=    0.000
 RMSDP=4.21D-05 MaxDP=2.66D-03 DE=-2.60D-03 OVMax= 6.89D-03

 Cycle   6  Pass 1  IDiag  1:
 RMSU=  3.75D-05    CP:  9.56D-01  1.07D+00  9.59D-01  8.23D-01  1.10D+00
 E= -306.991677632383     Delta-E=       -0.000145180995 Rises=F Damp=F
 DIIS: error= 3.74D-04 at cycle   6 NSaved=   6.
 NSaved= 6 IEnMin= 6 EnMin= -306.991677632383     IErMin= 6 ErrMin= 3.74D-04
 ErrMax= 3.74D-04  0.00D+00 EMaxC= 1.00D-01 BMatC= 1.55D-04 BMatP= 3.62D-04
 IDIUse=3 WtCom= 9.96D-01 WtEn= 3.74D-03
 Coeff-Com:  0.588D-02-0.203D-01-0.493D-01-0.797D-01 0.336D+00 0.808D+00
 Coeff-En:   0.000D+00 0.000D+00 0.000D+00 0.000D+00 0.000D+00 0.100D+01
 Coeff:      0.586D-02-0.202D-01-0.491D-01-0.794D-01 0.334D+00 0.809D+00
 Gap=     0.283 Goal=   None    Shift=    0.000
 Gap=     0.328 Goal=   None    Shift=    0.000
 RMSDP=3.28D-05 MaxDP=1.26D-03 DE=-1.45D-04 OVMax= 4.48D-03

 Cycle   7  Pass 1  IDiag  1:
 RMSU=  2.09D-05    CP:  9.56D-01  1.07D+00  9.67D-01  8.38D-01  1.33D+00
                    CP:  1.24D+00
 E= -306.991743159674     Delta-E=       -0.000065527291 Rises=F Damp=F
 DIIS: error= 1.08D-04 at cycle   7 NSaved=   7.
 NSaved= 7 IEnMin= 7 EnMin= -306.991743159674     IErMin= 7 ErrMin= 1.08D-04
 ErrMax= 1.08D-04  0.00D+00 EMaxC= 1.00D-01 BMatC= 2.16D-05 BMatP= 1.55D-04
 IDIUse=3 WtCom= 9.99D-01 WtEn= 1.08D-03
 Coeff-Com:  0.393D-02-0.759D-02-0.390D-01-0.926D-01-0.749D-01 0.266D+00
 Coeff-Com:  0.944D+00
 Coeff-En:   0.000D+00 0.000D+00 0.000D+00 0.000D+00 0.000D+00 0.000D+00
 Coeff-En:   0.100D+01
 Coeff:      0.392D-02-0.758D-02-0.390D-01-0.925D-01-0.748D-01 0.266D+00
 Coeff:      0.944D+00
 Gap=     0.284 Goal=   None    Shift=    0.000
 Gap=     0.328 Goal=   None    Shift=    0.000
 RMSDP=2.07D-05 MaxDP=8.26D-04 DE=-6.55D-05 OVMax= 3.27D-03

 Cycle   8  Pass 1  IDiag  1:
 RMSU=  9.24D-06    CP:  9.56D-01  1.07D+00  9.71D-01  8.48D-01  1.47D+00
                    CP:  1.49D+00  1.28D+00
 E= -306.991758187670     Delta-E=       -0.000015027995 Rises=F Damp=F
 DIIS: error= 3.46D-05 at cycle   8 NSaved=   8.
 NSaved= 8 IEnMin= 8 EnMin= -306.991758187670     IErMin= 8 ErrMin= 3.46D-05
 ErrMax= 3.46D-05  0.00D+00 EMaxC= 1.00D-01 BMatC= 2.54D-06 BMatP= 2.16D-05
 IDIUse=1 WtCom= 1.00D+00 WtEn= 0.00D+00
 Coeff-Com:  0.251D-03 0.460D-03-0.419D-02-0.160D-01-0.624D-01-0.254D-01
 Coeff-Com:  0.285D+00 0.822D+00
 Coeff:      0.251D-03 0.460D-03-0.419D-02-0.160D-01-0.624D-01-0.254D-01
 Coeff:      0.285D+00 0.822D+00
 Gap=     0.284 Goal=   None    Shift=    0.000
 Gap=     0.328 Goal=   None    Shift=    0.000
 RMSDP=5.09D-06 MaxDP=4.47D-04 DE=-1.50D-05 OVMax= 7.39D-04

 Cycle   9  Pass 1  IDiag  1:
 RMSU=  2.68D-06    CP:  9.56D-01  1.07D+00  9.71D-01  8.45D-01  1.48D+00
                    CP:  1.56D+00  1.43D+00  1.03D+00
 E= -306.991759305228     Delta-E=       -0.000001117558 Rises=F Damp=F
 DIIS: error= 9.36D-06 at cycle   9 NSaved=   9.
 NSaved= 9 IEnMin= 9 EnMin= -306.991759305228     IErMin= 9 ErrMin= 9.36D-06
 ErrMax= 9.36D-06  0.00D+00 EMaxC= 1.00D-01 BMatC= 2.02D-07 BMatP= 2.54D-06
 IDIUse=1 WtCom= 1.00D+00 WtEn= 0.00D+00
 Coeff-Com: -0.557D-03 0.114D-02 0.464D-02 0.114D-01 0.310D-02-0.325D-01
 Coeff-Com: -0.101D+00 0.486D-01 0.107D+01
 Coeff:     -0.557D-03 0.114D-02 0.464D-02 0.114D-01 0.310D-02-0.325D-01
 Coeff:     -0.101D+00 0.486D-01 0.107D+01
 Gap=     0.284 Goal=   None    Shift=    0.000
 Gap=     0.328 Goal=   None    Shift=    0.000
 RMSDP=1.93D-06 MaxDP=1.18D-04 DE=-1.12D-06 OVMax= 2.46D-04

 Cycle  10  Pass 1  IDiag  1:
 RMSU=  1.04D-06    CP:  9.56D-01  1.07D+00  9.70D-01  8.45D-01  1.48D+00
                    CP:  1.56D+00  1.46D+00  1.15D+00  1.24D+00
 E= -306.991759442347     Delta-E=       -0.000000137119 Rises=F Damp=F
 DIIS: error= 3.23D-06 at cycle  10 NSaved=  10.
 NSaved=10 IEnMin=10 EnMin= -306.991759442347     IErMin=10 ErrMin= 3.23D-06
 ErrMax= 3.23D-06  0.00D+00 EMaxC= 1.00D-01 BMatC= 2.09D-08 BMatP= 2.02D-07
 IDIUse=1 WtCom= 1.00D+00 WtEn= 0.00D+00
 Coeff-Com: -0.364D-04 0.315D-04 0.314D-03 0.158D-02 0.461D-02 0.199D-03
 Coeff-Com: -0.233D-01-0.551D-01 0.319D-01 0.104D+01
 Coeff:     -0.364D-04 0.315D-04 0.314D-03 0.158D-02 0.461D-02 0.199D-03
 Coeff:     -0.233D-01-0.551D-01 0.319D-01 0.104D+01
 Gap=     0.284 Goal=   None    Shift=    0.000
 Gap=     0.328 Goal=   None    Shift=    0.000
 RMSDP=6.20D-07 MaxDP=2.47D-05 DE=-1.37D-07 OVMax= 1.22D-04

 Cycle  11  Pass 1  IDiag  1:
 RMSU=  3.61D-07    CP:  9.56D-01  1.07D+00  9.70D-01  8.44D-01  1.48D+00
                    CP:  1.56D+00  1.46D+00  1.16D+00  1.36D+00  1.30D+00
 E= -306.991759459908     Delta-E=       -0.000000017561 Rises=F Damp=F
 DIIS: error= 1.73D-06 at cycle  11 NSaved=  11.
 NSaved=11 IEnMin=11 EnMin= -306.991759459908     IErMin=11 ErrMin= 1.73D-06
 ErrMax= 1.73D-06  0.00D+00 EMaxC= 1.00D-01 BMatC= 5.76D-09 BMatP= 2.09D-08
 IDIUse=1 WtCom= 1.00D+00 WtEn= 0.00D+00
 Coeff-Com:  0.793D-04-0.181D-03-0.680D-03-0.138D-02 0.930D-03 0.502D-02
 Coeff-Com:  0.983D-02-0.219D-01-0.181D+00 0.273D+00 0.917D+00
 Coeff:      0.793D-04-0.181D-03-0.680D-03-0.138D-02 0.930D-03 0.502D-02
 Coeff:      0.983D-02-0.219D-01-0.181D+00 0.273D+00 0.917D+00
 Gap=     0.284 Goal=   None    Shift=    0.000
 Gap=     0.328 Goal=   None    Shift=    0.000
 RMSDP=3.08D-07 MaxDP=1.15D-05 DE=-1.76D-08 OVMax= 4.83D-05

 Cycle  12  Pass 1  IDiag  1:
 RMSU=  1.48D-07    CP:  9.56D-01  1.07D+00  9.70D-01  8.44D-01  1.48D+00
                    CP:  1.56D+00  1.46D+00  1.16D+00  1.40D+00  1.51D+00
                    CP:  1.25D+00
 E= -306.991759463766     Delta-E=       -0.000000003857 Rises=F Damp=F
 DIIS: error= 7.42D-07 at cycle  12 NSaved=  12.
 NSaved=12 IEnMin=12 EnMin= -306.991759463766     IErMin=12 ErrMin= 7.42D-07
 ErrMax= 7.42D-07  0.00D+00 EMaxC= 1.00D-01 BMatC= 7.96D-10 BMatP= 5.76D-09
 IDIUse=1 WtCom= 1.00D+00 WtEn= 0.00D+00
 Coeff-Com:  0.250D-04-0.467D-04-0.228D-03-0.612D-03-0.510D-03 0.124D-02
 Coeff-Com:  0.632D-02 0.478D-02-0.494D-01-0.108D+00 0.205D+00 0.941D+00
 Coeff:      0.250D-04-0.467D-04-0.228D-03-0.612D-03-0.510D-03 0.124D-02
 Coeff:      0.632D-02 0.478D-02-0.494D-01-0.108D+00 0.205D+00 0.941D+00
 Gap=     0.284 Goal=   None    Shift=    0.000
 Gap=     0.328 Goal=   None    Shift=    0.000
 RMSDP=1.21D-07 MaxDP=4.82D-06 DE=-3.86D-09 OVMax= 2.14D-05

 Cycle  13  Pass 1  IDiag  1:
 RMSU=  6.56D-08    CP:  9.56D-01  1.07D+00  9.70D-01  8.44D-01  1.48D+00
                    CP:  1.56D+00  1.46D+00  1.16D+00  1.41D+00  1.57D+00
                    CP:  1.43D+00  1.14D+00
 E= -306.991759464335     Delta-E=       -0.000000000569 Rises=F Damp=F
 DIIS: error= 2.80D-07 at cycle  13 NSaved=  13.
 NSaved=13 IEnMin=13 EnMin= -306.991759464335     IErMin=13 ErrMin= 2.80D-07
 ErrMax= 2.80D-07  0.00D+00 EMaxC= 1.00D-01 BMatC= 1.10D-10 BMatP= 7.96D-10
 IDIUse=1 WtCom= 1.00D+00 WtEn= 0.00D+00
 Coeff-Com: -0.812D-05 0.184D-04 0.669D-04 0.113D-03-0.199D-03-0.467D-03
 Coeff-Com: -0.660D-03 0.331D-02 0.186D-01-0.549D-01-0.115D+00 0.160D+00
 Coeff-Com:  0.988D+00
 Coeff:     -0.812D-05 0.184D-04 0.669D-04 0.113D-03-0.199D-03-0.467D-03
 Coeff:     -0.660D-03 0.331D-02 0.186D-01-0.549D-01-0.115D+00 0.160D+00
 Coeff:      0.988D+00
 Gap=     0.284 Goal=   None    Shift=    0.000
 Gap=     0.328 Goal=   None    Shift=    0.000
 RMSDP=4.59D-08 MaxDP=3.96D-06 DE=-5.69D-10 OVMax= 4.23D-06

 Cycle  14  Pass 1  IDiag  1:
 RMSU=  2.34D-08    CP:  9.56D-01  1.07D+00  9.70D-01  8.44D-01  1.48D+00
                    CP:  1.56D+00  1.46D+00  1.16D+00  1.41D+00  1.58D+00
                    CP:  1.49D+00  1.30D+00  1.20D+00
 E= -306.991759464408     Delta-E=       -0.000000000073 Rises=F Damp=F
 DIIS: error= 1.01D-07 at cycle  14 NSaved=  14.
 NSaved=14 IEnMin=14 EnMin= -306.991759464408     IErMin=14 ErrMin= 1.01D-07
 ErrMax= 1.01D-07  0.00D+00 EMaxC= 1.00D-01 BMatC= 1.28D-11 BMatP= 1.10D-10
 IDIUse=1 WtCom= 1.00D+00 WtEn= 0.00D+00
 Coeff-Com: -0.323D-05 0.666D-05 0.331D-04 0.753D-04 0.334D-04-0.189D-03
 Coeff-Com: -0.720D-03-0.218D-03 0.789D-02 0.769D-02-0.328D-01-0.934D-01
 Coeff-Com:  0.855D-01 0.103D+01
 Coeff:     -0.323D-05 0.666D-05 0.331D-04 0.753D-04 0.334D-04-0.189D-03
 Coeff:     -0.720D-03-0.218D-03 0.789D-02 0.769D-02-0.328D-01-0.934D-01
 Coeff:      0.855D-01 0.103D+01
 Gap=     0.284 Goal=   None    Shift=    0.000
 Gap=     0.328 Goal=   None    Shift=    0.000
 RMSDP=1.52D-08 MaxDP=8.10D-07 DE=-7.30D-11 OVMax= 1.85D-06

 Cycle  15  Pass 1  IDiag  1:
 RMSU=  9.67D-09    CP:  9.56D-01  1.07D+00  9.70D-01  8.44D-01  1.48D+00
                    CP:  1.56D+00  1.46D+00  1.16D+00  1.41D+00  1.58D+00
                    CP:  1.49D+00  1.32D+00  1.33D+00  1.21D+00
 E= -306.991759464422     Delta-E=       -0.000000000014 Rises=F Damp=F
 DIIS: error= 4.91D-08 at cycle  15 NSaved=  15.
 NSaved=15 IEnMin=15 EnMin= -306.991759464422     IErMin=15 ErrMin= 4.91D-08
 ErrMax= 4.91D-08  0.00D+00 EMaxC= 1.00D-01 BMatC= 2.73D-12 BMatP= 1.28D-11
 IDIUse=1 WtCom= 1.00D+00 WtEn= 0.00D+00
 Coeff-Com:  0.910D-06-0.206D-05-0.410D-05-0.722D-05 0.312D-04 0.247D-04
 Coeff-Com:  0.234D-04-0.460D-03-0.159D-02 0.826D-02 0.129D-01-0.368D-01
 Coeff-Com: -0.124D+00 0.128D+00 0.101D+01
 Coeff:      0.910D-06-0.206D-05-0.410D-05-0.722D-05 0.312D-04 0.247D-04
 Coeff:      0.234D-04-0.460D-03-0.159D-02 0.826D-02 0.129D-01-0.368D-01
 Coeff:     -0.124D+00 0.128D+00 0.101D+01
 Gap=     0.284 Goal=   None    Shift=    0.000
 Gap=     0.328 Goal=   None    Shift=    0.000
 RMSDP=7.13D-09 MaxDP=3.35D-07 DE=-1.44D-11 OVMax= 1.04D-06

 SCF Done:  E(UM062X) =  -306.991759464     A.U. after   15 cycles
            NFock= 15  Conv=0.71D-08     -V/T= 2.0054
 <Sx>= 0.0000 <Sy>= 0.0000 <Sz>= 0.5000 <S**2>= 0.7544 S= 0.5022
 <L.S>= 0.000000000000E+00
 KE= 3.053536100031D+02 PE=-1.184824423531D+03 EE= 3.389440364094D+02
 Annihilation of the first spin contaminant:
 S**2 before annihilation     0.7544,   after     0.7500
 Leave Link  502 at Sun Mar 10 21:26:18 2019, MaxMem=   671088640 cpu:            1614.3 elap:              80.8
 (Enter /shared/centos7/gaussian/g16/l801.exe)
 DoSCS=F DFT=T ScalE2(SS,OS)=  1.000000  1.000000
 Range of M.O.s used for correlation:     1   267
 NBasis=   267 NAE=    24 NBE=    23 NFC=     0 NFV=     0
 NROrb=    267 NOA=    24 NOB=    23 NVA=   243 NVB=   244

 **** Warning!!: The largest alpha MO coefficient is  0.52950202D+02


 **** Warning!!: The largest beta MO coefficient is  0.45290806D+02

 Leave Link  801 at Sun Mar 10 21:26:18 2019, MaxMem=   671088640 cpu:               0.5 elap:               0.0
 (Enter /shared/centos7/gaussian/g16/l1101.exe)
 Using compressed storage, NAtomX=    13.
 Will process     14 centers per pass.
 Leave Link 1101 at Sun Mar 10 21:26:19 2019, MaxMem=   671088640 cpu:              16.4 elap:               0.9
 (Enter /shared/centos7/gaussian/g16/l1102.exe)
 Symmetrizing basis deriv contribution to polar:
 IMax=3 JMax=2 DiffMx= 0.00D+00
 Leave Link 1102 at Sun Mar 10 21:26:19 2019, MaxMem=   671088640 cpu:               0.8 elap:               0.1
 (Enter /shared/centos7/gaussian/g16/l1110.exe)
 Forming Gx(P) for the SCF density, NAtomX=    13.
 Integral derivatives from FoFJK, PRISM(SPDF).
 Do as many integral derivatives as possible in FoFJK.
 G2DrvN: MDV=     671087568.
 G2DrvN: will do    14 centers at a time, making    1 passes.
 Calling FoFCou, ICntrl=  3107 FMM=F I1Cent=   0 AccDes= 0.00D+00.
 FoFJK:  IHMeth= 1 ICntrl=    3107 DoSepK=F KAlg= 0 I1Cent=           0 FoldK=F
 IRaf=         0 NMat=       1 IRICut=       1 DoRegI=T DoRafI=F ISym2E= 0 IDoP0=0 IntGTp=1.
 FoFCou: FMM=F IPFlag=           0 FMFlag=      100000 FMFlg1=           0
         NFxFlg=           0 DoJE=F BraDBF=F KetDBF=F FulRan=T
         wScrn=  0.000000 ICntrl=      3107 IOpCl=  1 I1Cent=           0 NGrid=           0
         NMat0=    1 NMatS0=      1 NMatT0=    0 NMatD0=    1 NMtDS0=    0 NMtDT0=    0
 Symmetry not used in FoFCou.
 End of G2Drv F.D. properties file   721 does not exist.
 End of G2Drv F.D. properties file   722 does not exist.
 End of G2Drv F.D. properties file   788 does not exist.
 Leave Link 1110 at Sun Mar 10 21:28:35 2019, MaxMem=   671088640 cpu:            2714.3 elap:             135.8
 (Enter /shared/centos7/gaussian/g16/l1002.exe)
 Minotr:  UHF open shell wavefunction.
          IDoAtm=1111111111111
          Direct CPHF calculation.
          Differentiating once with respect to nuclear coordinates.
          Requested convergence is 1.0D-08 RMS, and 1.0D-07 maximum.
          Secondary convergence is 1.0D-12 RMS, and 1.0D-12 maximum.
          NewPWx=T KeepS1=F KeepF1=F KeepIn=T MapXYZ=F SortEE=F KeepMc=T.
         3966 words used for storage of precomputed grid.
 Two-electron integrals replicated using symmetry.
          MDV=     671088640 using IRadAn=       1.
          Solving linear equations simultaneously, MaxMat=     380.
 FoF2E skips out because all densities are zero.
 CalDSu exits because no D1Ps are significant.
 FoFJK:  IHMeth= 1 ICntrl=       0 DoSepK=F KAlg= 0 I1Cent=           0 FoldK=F
 IRaf= 950000000 NMat=      39 IRICut=      97 DoRegI=T DoRafI=T ISym2E= 2 IDoP0=3 IntGTp=3.
 FoFCou: FMM=F IPFlag=           0 FMFlag=      100000 FMFlg1=           0
         NFxFlg=           0 DoJE=F BraDBF=F KetDBF=F FulRan=T
         wScrn=  0.000000 ICntrl=         0 IOpCl=  1 I1Cent=           0 NGrid=           0
         NMat0=   39 NMatS0=     39 NMatT0=    0 NMatD0=   39 NMtDS0=    0 NMtDT0=    0
 Integrals replicated using symmetry in FoFCou.
 Raff kept on since  93.75% of shell-pairs survive, threshold=   0.20 IRatSp=94.
          There are    42 degrees of freedom in the 1st order CPHF.  IDoFFX=6 NUNeed=     0.
     36 vectors produced by pass  0 Test12= 2.72D-14 2.38D-09 XBig12= 1.48D-01 9.02D-02.
 AX will form    36 AO Fock derivatives at one time.
     36 vectors produced by pass  1 Test12= 2.72D-14 2.38D-09 XBig12= 1.63D-02 2.74D-02.
     36 vectors produced by pass  2 Test12= 2.72D-14 2.38D-09 XBig12= 9.05D-04 1.02D-02.
     36 vectors produced by pass  3 Test12= 2.72D-14 2.38D-09 XBig12= 1.54D-05 7.21D-04.
     36 vectors produced by pass  4 Test12= 2.72D-14 2.38D-09 XBig12= 2.15D-07 6.49D-05.
     36 vectors produced by pass  5 Test12= 2.72D-14 2.38D-09 XBig12= 3.73D-09 6.11D-06.
     34 vectors produced by pass  6 Test12= 2.72D-14 2.38D-09 XBig12= 3.86D-11 6.88D-07.
     19 vectors produced by pass  7 Test12= 2.72D-14 2.38D-09 XBig12= 2.63D-13 4.26D-08.
      2 vectors produced by pass  8 Test12= 2.72D-14 2.38D-09 XBig12= 1.79D-15 3.09D-09.
 InvSVY:  IOpt=1 It=  1 EMax= 1.55D-15
 Solved reduced A of dimension   271 with    36 vectors.
 End of Minotr F.D. properties file   721 does not exist.
 End of Minotr F.D. properties file   722 does not exist.
 End of Minotr F.D. properties file   788 does not exist.
 Leave Link 1002 at Sun Mar 10 21:32:08 2019, MaxMem=   671088640 cpu:            4262.9 elap:             213.3
 (Enter /shared/centos7/gaussian/g16/l601.exe)
 Copying SCF densities to generalized density rwf, IOpCl= 1 IROHF=0.

 **********************************************************************

            Population analysis using the SCF density.

 **********************************************************************

 Orbital symmetries:
 Alpha Orbitals:
       Occupied  (A) (A) (A) (A) (A) (A) (A) (A) (A) (A) (A) (A)
                 (A) (A) (A) (A) (A) (A) (A) (A) (A) (A) (A) (A)
       Virtual   (A) (A) (A) (A) (A) (A) (A) (A) (A) (A) (A) (A)
                 (A) (A) (A) (A) (A) (A) (A) (A) (A) (A) (A) (A)
                 (A) (A) (A) (A) (A) (A) (A) (A) (A) (A) (A) (A)
                 (A) (A) (A) (A) (A) (A) (A) (A) (A) (A) (A) (A)
                 (A) (A) (A) (A) (A) (A) (A) (A) (A) (A) (A) (A)
                 (A) (A) (A) (A) (A) (A) (A) (A) (A) (A) (A) (A)
                 (A) (A) (A) (A) (A) (A) (A) (A) (A) (A) (A) (A)
                 (A) (A) (A) (A) (A) (A) (A) (A) (A) (A) (A) (A)
                 (A) (A) (A) (A) (A) (A) (A) (A) (A) (A) (A) (A)
                 (A) (A) (A) (A) (A) (A) (A) (A) (A) (A) (A) (A)
                 (A) (A) (A) (A) (A) (A) (A) (A) (A) (A) (A) (A)
                 (A) (A) (A) (A) (A) (A) (A) (A) (A) (A) (A) (A)
                 (A) (A) (A) (A) (A) (A) (A) (A) (A) (A) (A) (A)
                 (A) (A) (A) (A) (A) (A) (A) (A) (A) (A) (A) (A)
                 (A) (A) (A) (A) (A) (A) (A) (A) (A) (A) (A) (A)
                 (A) (A) (A) (A) (A) (A) (A) (A) (A) (A) (A) (A)
                 (A) (A) (A) (A) (A) (A) (A) (A) (A) (A) (A) (A)
                 (A) (A) (A) (A) (A) (A) (A) (A) (A) (A) (A) (A)
                 (A) (A) (A) (A) (A) (A) (A) (A) (A) (A) (A) (A)
                 (A) (A) (A) (A) (A) (A) (A) (A) (A) (A) (A) (A)
                 (A) (A) (A)
 Beta  Orbitals:
       Occupied  (A) (A) (A) (A) (A) (A) (A) (A) (A) (A) (A) (A)
                 (A) (A) (A) (A) (A) (A) (A) (A) (A) (A) (A)
       Virtual   (A) (A) (A) (A) (A) (A) (A) (A) (A) (A) (A) (A)
                 (A) (A) (A) (A) (A) (A) (A) (A) (A) (A) (A) (A)
                 (A) (A) (A) (A) (A) (A) (A) (A) (A) (A) (A) (A)
                 (A) (A) (A) (A) (A) (A) (A) (A) (A) (A) (A) (A)
                 (A) (A) (A) (A) (A) (A) (A) (A) (A) (A) (A) (A)
                 (A) (A) (A) (A) (A) (A) (A) (A) (A) (A) (A) (A)
                 (A) (A) (A) (A) (A) (A) (A) (A) (A) (A) (A) (A)
                 (A) (A) (A) (A) (A) (A) (A) (A) (A) (A) (A) (A)
                 (A) (A) (A) (A) (A) (A) (A) (A) (A) (A) (A) (A)
                 (A) (A) (A) (A) (A) (A) (A) (A) (A) (A) (A) (A)
                 (A) (A) (A) (A) (A) (A) (A) (A) (A) (A) (A) (A)
                 (A) (A) (A) (A) (A) (A) (A) (A) (A) (A) (A) (A)
                 (A) (A) (A) (A) (A) (A) (A) (A) (A) (A) (A) (A)
                 (A) (A) (A) (A) (A) (A) (A) (A) (A) (A) (A) (A)
                 (A) (A) (A) (A) (A) (A) (A) (A) (A) (A) (A) (A)
                 (A) (A) (A) (A) (A) (A) (A) (A) (A) (A) (A) (A)
                 (A) (A) (A) (A) (A) (A) (A) (A) (A) (A) (A) (A)
                 (A) (A) (A) (A) (A) (A) (A) (A) (A) (A) (A) (A)
                 (A) (A) (A) (A) (A) (A) (A) (A) (A) (A) (A) (A)
                 (A) (A) (A) (A) (A) (A) (A) (A) (A) (A) (A) (A)
                 (A) (A) (A) (A)
 The electronic state is 2-A.
 Alpha  occ. eigenvalues --  -19.68569 -19.63709 -10.69153 -10.60651 -10.57084
 Alpha  occ. eigenvalues --  -10.55146  -1.22571  -1.15028  -0.90450  -0.79351
 Alpha  occ. eigenvalues --   -0.73493  -0.64572  -0.59112  -0.57340  -0.55480
 Alpha  occ. eigenvalues --   -0.51923  -0.50275  -0.47436  -0.44978  -0.44034
 Alpha  occ. eigenvalues --   -0.42731  -0.41782  -0.36861  -0.27855
 Alpha virt. eigenvalues --    0.00574   0.02744   0.03036   0.03429   0.04121
 Alpha virt. eigenvalues --    0.05015   0.06365   0.07131   0.07957   0.08137
 Alpha virt. eigenvalues --    0.10118   0.10415   0.11007   0.12648   0.12869
 Alpha virt. eigenvalues --    0.14993   0.16171   0.18005   0.19137   0.19665
 Alpha virt. eigenvalues --    0.19825   0.21506   0.22608   0.24482   0.25519
 Alpha virt. eigenvalues --    0.26152   0.26561   0.27741   0.28078   0.30315
 Alpha virt. eigenvalues --    0.31892   0.33143   0.33371   0.36025   0.36512
 Alpha virt. eigenvalues --    0.38471   0.41984   0.43430   0.46411   0.47339
 Alpha virt. eigenvalues --    0.49128   0.50438   0.51241   0.53267   0.55417
 Alpha virt. eigenvalues --    0.56185   0.56847   0.57518   0.58552   0.59739
 Alpha virt. eigenvalues --    0.60412   0.63266   0.63569   0.65299   0.67064
 Alpha virt. eigenvalues --    0.67671   0.68326   0.72415   0.74295   0.78271
 Alpha virt. eigenvalues --    0.79463   0.81820   0.82858   0.86278   0.87799
 Alpha virt. eigenvalues --    0.88026   0.91388   0.93217   0.96157   0.97419
 Alpha virt. eigenvalues --    1.00450   1.03994   1.04916   1.09764   1.10761
 Alpha virt. eigenvalues --    1.11165   1.12035   1.14622   1.15272   1.16738
 Alpha virt. eigenvalues --    1.17323   1.19099   1.21092   1.22597   1.24376
 Alpha virt. eigenvalues --    1.25792   1.27104   1.27798   1.30945   1.31765
 Alpha virt. eigenvalues --    1.34281   1.37592   1.37844   1.38824   1.41875
 Alpha virt. eigenvalues --    1.42199   1.44736   1.45763   1.47931   1.50190
 Alpha virt. eigenvalues --    1.50897   1.52089   1.57500   1.59249   1.59960
 Alpha virt. eigenvalues --    1.64090   1.66537   1.67490   1.69280   1.81026
 Alpha virt. eigenvalues --    1.82679   1.87506   2.01485   2.09423   2.14803
 Alpha virt. eigenvalues --    2.25126   2.29759   2.41670   2.43830   2.48384
 Alpha virt. eigenvalues --    2.49701   2.51985   2.55516   2.61708   2.64184
 Alpha virt. eigenvalues --    2.67308   2.75213   2.77714   2.81813   2.83410
 Alpha virt. eigenvalues --    2.85018   2.87452   2.93359   2.95169   2.96737
 Alpha virt. eigenvalues --    2.97670   2.98289   3.01644   3.03155   3.04082
 Alpha virt. eigenvalues --    3.05629   3.07148   3.12006   3.14170   3.16135
 Alpha virt. eigenvalues --    3.18992   3.20437   3.22571   3.23175   3.26082
 Alpha virt. eigenvalues --    3.27650   3.31371   3.32489   3.34319   3.36621
 Alpha virt. eigenvalues --    3.41476   3.42978   3.45192   3.48047   3.49773
 Alpha virt. eigenvalues --    3.50831   3.54502   3.57563   3.60007   3.61056
 Alpha virt. eigenvalues --    3.63213   3.67052   3.72765   3.74715   3.76226
 Alpha virt. eigenvalues --    3.77217   3.78304   3.82591   3.85045   3.86431
 Alpha virt. eigenvalues --    3.92478   3.94595   3.96176   3.98993   4.03036
 Alpha virt. eigenvalues --    4.04702   4.07670   4.09548   4.15424   4.18770
 Alpha virt. eigenvalues --    4.19578   4.21374   4.24439   4.25082   4.28433
 Alpha virt. eigenvalues --    4.31050   4.39696   4.43010   4.43793   4.49653
 Alpha virt. eigenvalues --    4.52261   4.52880   4.55759   4.64902   4.87283
 Alpha virt. eigenvalues --    5.00846   5.07874   5.09362   5.14709   5.17066
 Alpha virt. eigenvalues --    5.19433   5.20527   5.24451   5.33328   5.34715
 Alpha virt. eigenvalues --    5.35650   5.38319   5.43889   5.45342   5.48295
 Alpha virt. eigenvalues --    5.50348   5.53468   5.60167   5.66897   5.70752
 Alpha virt. eigenvalues --    5.76421   5.93410   6.30046   6.33729   6.51261
 Alpha virt. eigenvalues --    6.82144   6.84901   6.90953   7.03562   7.05246
 Alpha virt. eigenvalues --    7.14789   7.18396   7.27162   7.48080   7.60766
 Alpha virt. eigenvalues --    7.71501   7.74385  24.18171  24.20436  24.37140
 Alpha virt. eigenvalues --   24.65037  50.11431  50.25883
  Beta  occ. eigenvalues --  -19.68376 -19.63688 -10.69146 -10.59782 -10.57087
  Beta  occ. eigenvalues --  -10.55143  -1.22117  -1.14508  -0.90311  -0.77720
  Beta  occ. eigenvalues --   -0.72416  -0.63455  -0.58795  -0.56860  -0.54624
  Beta  occ. eigenvalues --   -0.51058  -0.49645  -0.46750  -0.44453  -0.43221
  Beta  occ. eigenvalues --   -0.41721  -0.41331  -0.36756
  Beta virt. eigenvalues --   -0.03923   0.00837   0.02397   0.03168   0.03904
  Beta virt. eigenvalues --    0.04155   0.05128   0.06307   0.07860   0.08040
  Beta virt. eigenvalues --    0.08198   0.09575   0.10364   0.11790   0.12554
  Beta virt. eigenvalues --    0.13051   0.14976   0.15503   0.18213   0.18911
  Beta virt. eigenvalues --    0.19771   0.20336   0.22079   0.22679   0.24433
  Beta virt. eigenvalues --    0.25631   0.26176   0.26932   0.27798   0.28481
  Beta virt. eigenvalues --    0.30175   0.31843   0.33040   0.33422   0.35716
  Beta virt. eigenvalues --    0.36552   0.38543   0.41978   0.43479   0.46418
  Beta virt. eigenvalues --    0.47370   0.49804   0.50312   0.51276   0.53377
  Beta virt. eigenvalues --    0.55500   0.56286   0.56918   0.58071   0.58964
  Beta virt. eigenvalues --    0.59906   0.60703   0.63465   0.63741   0.65400
  Beta virt. eigenvalues --    0.67111   0.67760   0.68460   0.72606   0.73937
  Beta virt. eigenvalues --    0.78347   0.79161   0.81852   0.83034   0.85950
  Beta virt. eigenvalues --    0.87947   0.88477   0.91341   0.93168   0.95625
  Beta virt. eigenvalues --    0.97277   1.00350   1.03668   1.04937   1.09761
  Beta virt. eigenvalues --    1.10815   1.11146   1.12163   1.14595   1.15281
  Beta virt. eigenvalues --    1.16790   1.17381   1.19002   1.20951   1.22717
  Beta virt. eigenvalues --    1.24483   1.25871   1.27248   1.27860   1.30997
  Beta virt. eigenvalues --    1.31797   1.34433   1.37822   1.37861   1.39217
  Beta virt. eigenvalues --    1.41927   1.42236   1.44741   1.45914   1.48020
  Beta virt. eigenvalues --    1.50284   1.50910   1.52966   1.57563   1.59279
  Beta virt. eigenvalues --    1.59837   1.64824   1.66652   1.67588   1.69218
  Beta virt. eigenvalues --    1.81332   1.82838   1.88049   2.01606   2.09692
  Beta virt. eigenvalues --    2.15034   2.25414   2.30557   2.42609   2.44416
  Beta virt. eigenvalues --    2.48639   2.50174   2.52154   2.56228   2.61888
  Beta virt. eigenvalues --    2.64331   2.67636   2.75749   2.78173   2.82200
  Beta virt. eigenvalues --    2.83619   2.85292   2.91152   2.94577   2.96948
  Beta virt. eigenvalues --    2.98092   3.00056   3.01227   3.03166   3.04059
  Beta virt. eigenvalues --    3.06118   3.06819   3.10251   3.12608   3.14978
  Beta virt. eigenvalues --    3.19075   3.21039   3.22362   3.24775   3.25819
  Beta virt. eigenvalues --    3.26781   3.29798   3.32344   3.33214   3.37079
  Beta virt. eigenvalues --    3.37368   3.42686   3.44023   3.46561   3.50204
  Beta virt. eigenvalues --    3.51129   3.52699   3.56865   3.58895   3.60379
  Beta virt. eigenvalues --    3.63342   3.64117   3.67521   3.72918   3.75809
  Beta virt. eigenvalues --    3.76816   3.77616   3.80248   3.83183   3.87346
  Beta virt. eigenvalues --    3.89008   3.92915   3.94774   3.96245   3.99300
  Beta virt. eigenvalues --    4.03297   4.05981   4.10147   4.11474   4.15915
  Beta virt. eigenvalues --    4.19572   4.21185   4.22089   4.25300   4.26393
  Beta virt. eigenvalues --    4.28849   4.31330   4.41551   4.43412   4.43929
  Beta virt. eigenvalues --    4.49858   4.52302   4.52923   4.55839   4.64954
  Beta virt. eigenvalues --    4.87594   5.04297   5.08136   5.10807   5.15572
  Beta virt. eigenvalues --    5.17693   5.19502   5.21518   5.25715   5.33930
  Beta virt. eigenvalues --    5.34856   5.38306   5.41097   5.44010   5.45496
  Beta virt. eigenvalues --    5.48500   5.50447   5.53507   5.60662   5.67476
  Beta virt. eigenvalues --    5.70984   5.76998   5.94070   6.30245   6.33909
  Beta virt. eigenvalues --    6.51993   6.82415   6.85061   6.91204   7.03684
  Beta virt. eigenvalues --    7.05608   7.15169   7.18722   7.27443   7.48268
  Beta virt. eigenvalues --    7.60874   7.71593   7.74363  24.19604  24.20450
  Beta virt. eigenvalues --   24.37140  24.65104  50.11273  50.25849
          Condensed to atoms (all electrons):
               1          2          3          4          5          6
     1  O    8.114829  -0.079127  -0.096145  -0.007422   0.203293   0.087678
     2  O   -0.079127   8.098976  -0.015489  -0.018510   0.415699  -0.047292
     3  C   -0.096145  -0.015489   6.005078  -0.010339  -0.243914  -0.121123
     4  C   -0.007422  -0.018510  -0.010339   5.300928  -0.031084   0.001226
     5  C    0.203293   0.415699  -0.243914  -0.031084   5.523379  -0.047631
     6  C    0.087678  -0.047292  -0.121123   0.001226  -0.047631   5.496387
     7  H   -0.004791   0.002443   0.426554  -0.052022  -0.039070   0.001856
     8  H    0.005761  -0.003444   0.472399  -0.018062  -0.083501  -0.001659
     9  H    0.000174  -0.000776  -0.073863   0.412819   0.043677   0.000070
    10  H   -0.002622   0.000596  -0.003670   0.413497  -0.031720   0.000251
    11  H   -0.001721   0.001460  -0.016950   0.402234  -0.017109   0.000628
    12  H   -0.028651  -0.009357   0.005857  -0.001152  -0.004886   0.400484
    13  H   -0.048852   0.002386   0.004874  -0.000003   0.005581   0.404683
               7          8          9         10         11         12
     1  O   -0.004791   0.005761   0.000174  -0.002622  -0.001721  -0.028651
     2  O    0.002443  -0.003444  -0.000776   0.000596   0.001460  -0.009357
     3  C    0.426554   0.472399  -0.073863  -0.003670  -0.016950   0.005857
     4  C   -0.052022  -0.018062   0.412819   0.413497   0.402234  -0.001152
     5  C   -0.039070  -0.083501   0.043677  -0.031720  -0.017109  -0.004886
     6  C    0.001856  -0.001659   0.000070   0.000251   0.000628   0.400484
     7  H    0.525833  -0.026897  -0.004496  -0.005853   0.005673  -0.000077
     8  H   -0.026897   0.494699  -0.004699   0.004648  -0.006730   0.000012
     9  H   -0.004496  -0.004699   0.538678  -0.025234  -0.023532   0.000004
    10  H   -0.005853   0.004648  -0.025234   0.524953  -0.028983   0.000001
    11  H    0.005673  -0.006730  -0.023532  -0.028983   0.542423  -0.000018
    12  H   -0.000077   0.000012   0.000004   0.000001  -0.000018   0.504865
    13  H   -0.000014   0.000012  -0.000001   0.000042   0.000003  -0.031370
              13
     1  O   -0.048852
     2  O    0.002386
     3  C    0.004874
     4  C   -0.000003
     5  C    0.005581
     6  C    0.404683
     7  H   -0.000014
     8  H    0.000012
     9  H   -0.000001
    10  H    0.000042
    11  H    0.000003
    12  H   -0.031370
    13  H    0.515548
          Atomic-Atomic Spin Densities.
               1          2          3          4          5          6
     1  O    0.145559  -0.003539  -0.004426   0.006055   0.020553  -0.170490
     2  O   -0.003539   0.011270  -0.001406  -0.000608  -0.000274   0.009300
     3  C   -0.004426  -0.001406   0.073498  -0.034774  -0.027811  -0.015332
     4  C    0.006055  -0.000608  -0.034774   0.025263   0.008332   0.000403
     5  C    0.020553  -0.000274  -0.027811   0.008332   0.036116  -0.003923
     6  C   -0.170490   0.009300  -0.015332   0.000403  -0.003923   1.214199
     7  H   -0.000575   0.000347  -0.006614   0.002030   0.002589   0.000849
     8  H   -0.000121   0.000071   0.000597   0.000450  -0.000999  -0.000094
     9  H    0.000113  -0.000025  -0.003220   0.001798   0.001416  -0.000015
    10  H   -0.001136   0.000085   0.003222  -0.000805  -0.002586   0.000304
    11  H   -0.000170   0.000065   0.001562  -0.001424  -0.000370   0.000044
    12  H    0.001918   0.003605   0.002620  -0.000089  -0.003319  -0.020493
    13  H    0.004877  -0.000046   0.003014  -0.000353  -0.001493  -0.021754
               7          8          9         10         11         12
     1  O   -0.000575  -0.000121   0.000113  -0.001136  -0.000170   0.001918
     2  O    0.000347   0.000071  -0.000025   0.000085   0.000065   0.003605
     3  C   -0.006614   0.000597  -0.003220   0.003222   0.001562   0.002620
     4  C    0.002030   0.000450   0.001798  -0.000805  -0.001424  -0.000089
     5  C    0.002589  -0.000999   0.001416  -0.002586  -0.000370  -0.003319
     6  C    0.000849  -0.000094  -0.000015   0.000304   0.000044  -0.020493
     7  H    0.003189  -0.000076   0.000196  -0.000208  -0.000038  -0.000045
     8  H   -0.000076  -0.000148   0.000014   0.000000  -0.000029   0.000008
     9  H    0.000196   0.000014   0.000216  -0.000061  -0.000002  -0.000001
    10  H   -0.000208   0.000000  -0.000061  -0.000124  -0.000045   0.000032
    11  H   -0.000038  -0.000029  -0.000002  -0.000045  -0.000322  -0.000003
    12  H   -0.000045   0.000008  -0.000001   0.000032  -0.000003  -0.009375
    13  H   -0.000019   0.000000  -0.000001   0.000050   0.000001   0.006945
              13
     1  O    0.004877
     2  O   -0.000046
     3  C    0.003014
     4  C   -0.000353
     5  C   -0.001493
     6  C   -0.021754
     7  H   -0.000019
     8  H    0.000000
     9  H   -0.000001
    10  H    0.000050
    11  H    0.000001
    12  H    0.006945
    13  H   -0.008654
 Mulliken charges and spin densities:
               1          2
     1  O   -0.142404  -0.001381
     2  O   -0.347566   0.018846
     3  C   -0.333267  -0.009070
     4  C   -0.392110   0.006278
     5  C    0.307287   0.028231
     6  C   -0.175560   0.992997
     7  H    0.170863   0.001627
     8  H    0.167461  -0.000326
     9  H    0.137180   0.000428
    10  H    0.154095  -0.001271
    11  H    0.142623  -0.000732
    12  H    0.164286  -0.018196
    13  H    0.147113  -0.017432
 Sum of Mulliken charges =  -0.00000   1.00000
 Mulliken charges and spin densities with hydrogens summed into heavy atoms:
               1          2
     1  O   -0.142404  -0.001381
     2  O   -0.347566   0.018846
     3  C    0.005056  -0.007768
     4  C    0.041788   0.004703
     5  C    0.307287   0.028231
     6  C    0.135839   0.957369
 APT charges:
               1
     1  O   -0.109295
     2  O   -0.270300
     3  C   -0.866840
     4  C   -1.167303
     5  C    0.340596
     6  C   -0.889484
     7  H    0.395593
     8  H    0.485430
     9  H    0.584613
    10  H    0.264713
    11  H    0.321441
    12  H    0.338971
    13  H    0.571864
 Sum of APT charges =  -0.00000
 APT charges with hydrogens summed into heavy atoms:
               1
     1  O   -0.109295
     2  O   -0.270300
     3  C    0.014183
     4  C    0.003464
     5  C    0.340596
     6  C    0.021352
 Electronic spatial extent (au):  <R**2>=            640.2769
 Charge=             -0.0000 electrons
 Dipole moment (field-independent basis, Debye):
    X=             -1.6606    Y=             -1.3292    Z=             -0.0238  Tot=              2.1272
 Quadrupole moment (field-independent basis, Debye-Ang):
   XX=            -33.0528   YY=            -40.4937   ZZ=            -36.5910
   XY=             -2.9164   XZ=             -2.0297   YZ=              1.3267
 Traceless Quadrupole moment (field-independent basis, Debye-Ang):
   XX=              3.6597   YY=             -3.7812   ZZ=              0.1215
   XY=             -2.9164   XZ=             -2.0297   YZ=              1.3267
 Octapole moment (field-independent basis, Debye-Ang**2):
  XXX=              1.7489  YYY=             -5.8798  ZZZ=              0.1626  XYY=             -0.1156
  XXY=             -2.9172  XXZ=             -3.5651  XZZ=             -1.3115  YZZ=              1.8262
  YYZ=              0.6311  XYZ=              1.2059
 Hexadecapole moment (field-independent basis, Debye-Ang**3):
 XXXX=           -559.9770 YYYY=           -215.3724 ZZZZ=            -70.5590 XXXY=             -9.0235
 XXXZ=            -18.6167 YYYX=            -11.9885 YYYZ=              1.0344 ZZZX=             -3.0295
 ZZZY=             -1.9404 XXYY=           -123.9073 XXZZ=           -111.2462 YYZZ=            -49.7667
 XXYZ=              0.2034 YYXZ=             -1.7121 ZZXY=              1.9762
 N-N= 2.335350176537D+02 E-N=-1.184824423243D+03  KE= 3.053536100031D+02
  Exact polarizability:   0.000   0.000   0.000   0.000   0.000   0.000
 Approx polarizability:  68.387  -0.389  71.013  -2.601  -3.914  56.518
                          Isotropic Fermi Contact Couplings
        Atom                 a.u.       MegaHertz       Gauss      10(-4) cm-1
     1  O(17)              0.02275     -13.79350      -4.92186      -4.60102
     2  O(17)              0.00090      -0.54831      -0.19565      -0.18290
     3  C(13)             -0.00201      -2.26110      -0.80682      -0.75422
     4  C(13)              0.00257       2.89229       1.03204       0.96477
     5  C(13)              0.00210       2.35742       0.84118       0.78635
     6  C(13)              0.34914     392.49482     140.05191     130.92218
     7  H(1)               0.00093       4.16679       1.48681       1.38989
     8  H(1)              -0.00015      -0.65711      -0.23447      -0.21919
     9  H(1)               0.00019       0.83626       0.29840       0.27895
    10  H(1)               0.00009       0.39802       0.14202       0.13277
    11  H(1)              -0.00003      -0.15538      -0.05544      -0.05183
    12  H(1)              -0.00394     -17.59416      -6.27803      -5.86878
    13  H(1)              -0.00391     -17.46523      -6.23203      -5.82578
 --------------------------------------------------------
       Center         ----  Spin Dipole Couplings  ----
                      3XX-RR        3YY-RR        3ZZ-RR
 --------------------------------------------------------
     1   Atom       -0.185268     -0.159722      0.344990
     2   Atom       -0.036085     -0.017351      0.053437
     3   Atom        0.003092     -0.002080     -0.001012
     4   Atom        0.004726     -0.002564     -0.002162
     5   Atom       -0.004393     -0.009086      0.013480
     6   Atom       -0.347587     -0.392136      0.739724
     7   Atom        0.003885     -0.002427     -0.001457
     8   Atom        0.002360     -0.000672     -0.001688
     9   Atom        0.002131     -0.001115     -0.001016
    10   Atom        0.004284     -0.001520     -0.002764
    11   Atom        0.002686     -0.001839     -0.000847
    12   Atom       -0.046118      0.023644      0.022474
    13   Atom       -0.033864      0.047817     -0.013952
 --------------------------------------------------------
                        XY            XZ            YZ
 --------------------------------------------------------
     1   Atom        0.051966      0.260236      0.177218
     2   Atom       -0.003423      0.007137      0.022474
     3   Atom       -0.002693     -0.000408      0.000683
     4   Atom        0.000772      0.001645      0.000303
     5   Atom       -0.008561      0.007945      0.007459
     6   Atom        0.131717      0.458200      0.364117
     7   Atom       -0.001409     -0.002451      0.000507
     8   Atom       -0.002155     -0.000071      0.000065
     9   Atom        0.000161      0.000109      0.000032
    10   Atom        0.002379      0.000571      0.000280
    11   Atom       -0.000099      0.001892     -0.000030
    12   Atom        0.027752     -0.004313     -0.042312
    13   Atom       -0.043036      0.007016      0.025673
 --------------------------------------------------------


 ---------------------------------------------------------------------------------
              Anisotropic Spin Dipole Couplings in Principal Axis System
 ---------------------------------------------------------------------------------

       Atom             a.u.   MegaHertz   Gauss  10(-4) cm-1        Axes

              Baa    -0.2956    21.390     7.632     7.135  0.8859  0.2043 -0.4164
     1 O(17)  Bbb    -0.2068    14.962     5.339     4.991 -0.2941  0.9416 -0.1637
              Bcc     0.5024   -36.351   -12.971   -12.125  0.3587  0.2675  0.8943
 
              Baa    -0.0384     2.776     0.991     0.926  0.9380  0.3127 -0.1495
     2 O(17)  Bbb    -0.0220     1.590     0.567     0.530 -0.3411  0.9092 -0.2387
              Bcc     0.0603    -4.366    -1.558    -1.456  0.0613  0.2749  0.9595
 
              Baa    -0.0033    -0.446    -0.159    -0.149  0.3679  0.9074 -0.2030
     3 C(13)  Bbb    -0.0010    -0.133    -0.048    -0.044  0.1897  0.1404  0.9718
              Bcc     0.0043     0.579     0.207     0.193  0.9103 -0.3960 -0.1205
 
              Baa    -0.0027    -0.366    -0.131    -0.122  0.0331  0.8388 -0.5435
     4 C(13)  Bbb    -0.0025    -0.330    -0.118    -0.110 -0.2429  0.5342  0.8097
              Bcc     0.0052     0.696     0.248     0.232  0.9695  0.1052  0.2214
 
              Baa    -0.0192    -2.573    -0.918    -0.858  0.5966  0.7386 -0.3139
     5 C(13)  Bbb     0.0020     0.263     0.094     0.088  0.7533 -0.6503 -0.0984
              Bcc     0.0172     2.310     0.824     0.770  0.2768  0.1777  0.9443
 
              Baa    -0.5150   -69.108   -24.660   -23.052  0.9307  0.0677 -0.3595
     6 C(13)  Bbb    -0.4987   -66.921   -23.879   -22.323 -0.1567  0.9617 -0.2248
              Bcc     1.0137   136.030    48.539    45.375  0.3305  0.2655  0.9057
 
              Baa    -0.0027    -1.456    -0.519    -0.486  0.2226  0.9741  0.0403
     7 H(1)   Bbb    -0.0024    -1.284    -0.458    -0.428  0.3379 -0.1159  0.9340
              Bcc     0.0051     2.740     0.978     0.914  0.9145 -0.1942 -0.3550
 
              Baa    -0.0018    -0.959    -0.342    -0.320  0.4456  0.8667 -0.2241
     8 H(1)   Bbb    -0.0017    -0.898    -0.321    -0.300  0.1188  0.1908  0.9744
              Bcc     0.0035     1.857     0.663     0.619  0.8873 -0.4609 -0.0180
 
              Baa    -0.0011    -0.603    -0.215    -0.201 -0.0399  0.9702 -0.2389
     9 H(1)   Bbb    -0.0010    -0.541    -0.193    -0.180 -0.0457  0.2371  0.9704
              Bcc     0.0021     1.144     0.408     0.381  0.9982  0.0496  0.0349
 
              Baa    -0.0028    -1.507    -0.538    -0.503 -0.0217 -0.1714  0.9850
    10 H(1)   Bbb    -0.0024    -1.259    -0.449    -0.420 -0.3448  0.9260  0.1535
              Bcc     0.0052     2.766     0.987     0.923  0.9384  0.3363  0.0792
 
              Baa    -0.0018    -0.983    -0.351    -0.328  0.0454  0.9974 -0.0565
    11 H(1)   Bbb    -0.0017    -0.890    -0.318    -0.297 -0.3963  0.0699  0.9155
              Bcc     0.0035     1.873     0.668     0.625  0.9170 -0.0192  0.3984
 
              Baa    -0.0574   -30.632   -10.930   -10.218  0.9055 -0.3932 -0.1594
    12 H(1)   Bbb    -0.0126    -6.700    -2.391    -2.235  0.3756  0.5680  0.7323
              Bcc     0.0700    37.331    13.321    12.452  0.1974  0.7230 -0.6620
 
              Baa    -0.0590   -31.463   -11.227   -10.495  0.8275  0.4224 -0.3699
    13 H(1)   Bbb    -0.0125    -6.693    -2.388    -2.232  0.4367 -0.0701  0.8969
              Bcc     0.0715    38.156    13.615    12.727 -0.3529  0.9037  0.2425
 

 ---------------------------------------------------------------------------------

 No NMR shielding tensors so no spin-rotation constants.
 Leave Link  601 at Sun Mar 10 21:32:09 2019, MaxMem=   671088640 cpu:              14.3 elap:               0.8
 (Enter /shared/centos7/gaussian/g16/l701.exe)
 SCFChk:  SCF convergence  7.13D-09 required  1.00D-08
 ... and contract with generalized density number  0.
 Compute integral second derivatives.
 Entering OneElI...
 Calculate overlap and kinetic energy integrals
    NBasis = 297  MinDer = 2  MaxDer = 2
 Requested accuracy = 0.1000D-12
 PrmmSu-InSpLW:  IPartL=    0 NPrtUS=   20 NPrtUL=    1 DoSpLW=F IThBeg=    0 IThEnd=   19 NThAct=   20.
 PrsmSu:  NPrtUS=  20 ThrOK=T IAlg=1 NPAlg=1 LenDen=           0 ISkipM=0 DoSpLW=F IThBeg=    0 IThEnd=   19.
 Prism:   IPart=     0 DynPar=F LinDyn=F Incr=           1.
 PRISM was handed    33455111 working-precision words and  3475 shell-pairs
 PRISM was handed    33455111 working-precision words and  3475 shell-pairs
 PRISM was handed    33455111 working-precision words and  3475 shell-pairs
 PRISM was handed    33455111 working-precision words and  3475 shell-pairs
 PRISM was handed    33455111 working-precision words and  3475 shell-pairs
 PRISM was handed    33455111 working-precision words and  3475 shell-pairs
 PRISM was handed    33455111 working-precision words and  3475 shell-pairs
 PRISM was handed    33455111 working-precision words and  3475 shell-pairs
 PRISM was handed    33455111 working-precision words and  3475 shell-pairs
 PRISM was handed    33455111 working-precision words and  3475 shell-pairs
 PRISM was handed    33455111 working-precision words and  3475 shell-pairs
 PRISM was handed    33455111 working-precision words and  3475 shell-pairs
 PRISM was handed    33455111 working-precision words and  3475 shell-pairs
 PRISM was handed    33455111 working-precision words and  3475 shell-pairs
 PRISM was handed    33455111 working-precision words and  3475 shell-pairs
 PRISM was handed    33455111 working-precision words and  3475 shell-pairs
 PRISM was handed    33455111 working-precision words and  3475 shell-pairs
 PRISM was handed    33455111 working-precision words and  3475 shell-pairs
 PRISM was handed    33455111 working-precision words and  3475 shell-pairs
 PRISM was handed    33455111 working-precision words and  3475 shell-pairs
 IPart= 11 NShTot=         166 NBatch=          31 AvBLen=         5.4
 IPart=  3 NShTot=         195 NBatch=          50 AvBLen=         3.9
 IPart=  4 NShTot=         189 NBatch=          46 AvBLen=         4.1
 IPart=  1 NShTot=         198 NBatch=          52 AvBLen=         3.8
 IPart= 15 NShTot=         162 NBatch=          31 AvBLen=         5.2
 IPart=  5 NShTot=         186 NBatch=          44 AvBLen=         4.2
 IPart=  2 NShTot=         196 NBatch=          51 AvBLen=         3.8
 IPart= 13 NShTot=         163 NBatch=          31 AvBLen=         5.3
 IPart=  8 NShTot=         176 NBatch=          36 AvBLen=         4.9
 IPart=  6 NShTot=         181 NBatch=          39 AvBLen=         4.6
 IPart= 10 NShTot=         170 NBatch=          32 AvBLen=         5.3
 IPart= 14 NShTot=         163 NBatch=          31 AvBLen=         5.3
 IPart=  9 NShTot=         173 NBatch=          33 AvBLen=         5.2
 IPart=  0 NShTot=         207 NBatch=          60 AvBLen=         3.5
 IPart=  7 NShTot=         178 NBatch=          36 AvBLen=         4.9
 IPart= 16 NShTot=         155 NBatch=          31 AvBLen=         5.0
 IPart= 18 NShTot=         150 NBatch=          30 AvBLen=         5.0
 IPart= 12 NShTot=         163 NBatch=          31 AvBLen=         5.3
 IPart= 19 NShTot=         150 NBatch=          30 AvBLen=         5.0
 IPart= 17 NShTot=         154 NBatch=          31 AvBLen=         5.0
 PrSmSu:  NxtVal=             21.
 Entering OneElI...
 Calculate potential energy integrals
    NBasis = 297  MinDer = 2  MaxDer = 2
 Requested accuracy = 0.1000D-12
 PrmmSu-InSpLW:  IPartL=    0 NPrtUS=   20 NPrtUL=    1 DoSpLW=F IThBeg=    0 IThEnd=   19 NThAct=   20.
 PrsmSu:  NPrtUS=  20 ThrOK=T IAlg=1 NPAlg=1 LenDen=           0 ISkipM=0 DoSpLW=F IThBeg=    0 IThEnd=   19.
 Prism:   IPart=     0 DynPar=F LinDyn=F Incr=          21.
 PRISM was handed    33469310 working-precision words and  3252 shell-pairs
 PRISM was handed    33469310 working-precision words and  3252 shell-pairs
 PRISM was handed    33469310 working-precision words and  3252 shell-pairs
 PRISM was handed    33469310 working-precision words and  3252 shell-pairs
 PRISM was handed    33469310 working-precision words and  3252 shell-pairs
 PRISM was handed    33469310 working-precision words and  3252 shell-pairs
 PRISM was handed    33469310 working-precision words and  3252 shell-pairs
 PRISM was handed    33469310 working-precision words and  3252 shell-pairs
 PRISM was handed    33469310 working-precision words and  3252 shell-pairs
 PRISM was handed    33469310 working-precision words and  3252 shell-pairs
 PRISM was handed    33469310 working-precision words and  3252 shell-pairs
 PRISM was handed    33469310 working-precision words and  3252 shell-pairs
 PRISM was handed    33469310 working-precision words and  3252 shell-pairs
 PRISM was handed    33469310 working-precision words and  3252 shell-pairs
 PRISM was handed    33469310 working-precision words and  3252 shell-pairs
 PRISM was handed    33469310 working-precision words and  3252 shell-pairs
 PRISM was handed    33469310 working-precision words and  3252 shell-pairs
 PRISM was handed    33469310 working-precision words and  3252 shell-pairs
 PRISM was handed    33469310 working-precision words and  3252 shell-pairs
 PRISM was handed    33469310 working-precision words and  3252 shell-pairs
 IPart= 14 NShTot=        1924 NBatch=         148 AvBLen=        13.0
 IPart=  3 NShTot=        2327 NBatch=         179 AvBLen=        13.0
 IPart= 11 NShTot=        2015 NBatch=         155 AvBLen=        13.0
 IPart=  5 NShTot=        2262 NBatch=         174 AvBLen=        13.0
 IPart=  2 NShTot=        2366 NBatch=         182 AvBLen=        13.0
 IPart= 15 NShTot=        1924 NBatch=         148 AvBLen=        13.0
 IPart= 13 NShTot=        1950 NBatch=         150 AvBLen=        13.0
 IPart=  6 NShTot=        2223 NBatch=         171 AvBLen=        13.0
 IPart= 10 NShTot=        2054 NBatch=         158 AvBLen=        13.0
 IPart=  1 NShTot=        2457 NBatch=         189 AvBLen=        13.0
 IPart= 12 NShTot=        1989 NBatch=         153 AvBLen=        13.0
 IPart= 19 NShTot=        1846 NBatch=         142 AvBLen=        13.0
 IPart=  0 NShTot=        2535 NBatch=         195 AvBLen=        13.0
 IPart= 16 NShTot=        1898 NBatch=         146 AvBLen=        13.0
 IPart=  4 NShTot=        2288 NBatch=         176 AvBLen=        13.0
 IPart= 17 NShTot=        1885 NBatch=         145 AvBLen=        13.0
 IPart= 18 NShTot=        1885 NBatch=         145 AvBLen=        13.0
 IPart=  7 NShTot=        2184 NBatch=         168 AvBLen=        13.0
 IPart=  9 NShTot=        2119 NBatch=         163 AvBLen=        13.0
 IPart=  8 NShTot=        2145 NBatch=         165 AvBLen=        13.0
 PrSmSu:  NxtVal=            421.
 Polarizability after L701:
                1             2             3 
      1  0.000000D+00
      2  0.000000D+00  0.000000D+00
      3  0.000000D+00  0.000000D+00  0.000000D+00
 Dipole Derivatives after L701:
                 1             2             3             4             5 
      1   0.135837D+00 -0.284436D-02 -0.529169D-01 -0.248749D+00  0.784377D-01
      2  -0.191775D-01 -0.194741D+00 -0.414800D-01  0.227474D+00 -0.568765D-01
      3  -0.439494D-01 -0.544169D-01 -0.268980D+00 -0.425897D-01 -0.577793D-01
                 6             7             8             9            10 
      1  -0.955398D-01 -0.798733D+00  0.881077D+00  0.791400D+00 -0.154087D+01
      2  -0.200543D+00  0.361195D+00 -0.702889D+00  0.884449D-01  0.262697D-02
      3  -0.505274D+00  0.928482D-01  0.713836D-01 -0.109890D+01  0.116568D+00
                11            12            13            14            15 
      1  -0.846090D+00 -0.642734D+00  0.369241D+00 -0.232567D+00  0.878853D-01
      2  -0.106183D+01 -0.737824D-01 -0.271148D+00 -0.348457D-01  0.283184D+00
      3   0.980993D-02 -0.899214D+00 -0.570062D-03  0.174409D+00  0.687392D+00
                16            17            18            19            20 
      1  -0.139951D+01  0.387522D+00  0.108174D+01  0.251956D+00  0.151041D+00
      2   0.402538D+00 -0.958232D+00 -0.133467D+00 -0.312440D-02  0.154378D+00
      3   0.179855D+00  0.149974D+00 -0.310709D+00 -0.805962D-01 -0.155693D+00
                21            22            23            24            25 
      1  -0.595865D+00  0.615898D+00 -0.729610D+00  0.117119D+00  0.147082D+01
      2   0.594188D-01 -0.330349D+00  0.694308D+00 -0.935399D-01  0.315863D+00
      3   0.780446D+00 -0.524601D-01  0.882069D-01  0.146085D+00 -0.335095D-03
                26            27            28            29            30 
      1   0.111189D+00 -0.413997D+00 -0.143985D+00  0.600044D+00 -0.786827D-01
      2   0.154576D+00 -0.834542D-01 -0.339142D+00  0.805394D+00 -0.106843D+00
      3   0.148131D-01  0.128440D+00 -0.255903D-01  0.711349D-01  0.132730D+00
                31            32            33            34            35 
      1   0.974507D-01 -0.165068D+00  0.859063D+00  0.470274D+00  0.877590D+00
      2   0.857928D-03  0.109112D+00  0.178162D+00 -0.901586D-02  0.225348D+00
      3  -0.170403D-01 -0.139580D+00  0.757759D+00 -0.796263D-01 -0.244958D+00
                36            37            38            39 
      1  -0.758204D+00  0.720367D+00 -0.111072D+01 -0.299268D+00
      2  -0.457862D-01 -0.338598D+00  0.866295D+00  0.169686D+00
      3   0.321291D+00 -0.465141D-01  0.726958D-01  0.128930D+00
 Hessian after L701:
                1             2             3             4             5 
      1  0.312080D+01
      2  0.438709D+01  0.680629D+01
      3  0.602181D+00  0.991667D+00  0.149605D+02
      4 -0.195466D+00 -0.411820D+00  0.138733D+00  0.112655D+02
      5 -0.492853D+00  0.754645D+00  0.114847D-01 -0.661363D+01  0.317342D+01
      6  0.145982D+00 -0.275198D-01 -0.491046D-01  0.280416D+01  0.469325D+01
      7  0.550818D+00 -0.242638D+00  0.196938D+00  0.855718D+00  0.379488D+00
      8 -0.157424D+00 -0.231016D-01 -0.481833D-01  0.351700D+00 -0.221373D+00
      9  0.174425D+00 -0.775575D-01 -0.809903D-01 -0.328113D+00 -0.889681D-01
     10  0.457289D+00 -0.742663D-02  0.416245D-01  0.142542D+00  0.240241D+00
     11 -0.120177D+00 -0.273023D+00 -0.675594D-02  0.210466D+00  0.246407D-01
     12  0.411450D-01  0.372205D-01 -0.290246D+00  0.298665D-01  0.261977D-01
     13 -0.509220D+01 -0.406095D+01  0.222218D+00 -0.122069D+02  0.688037D+01
     14 -0.404152D+01 -0.773618D+00 -0.890181D+00  0.690066D+01 -0.413997D+01
     15  0.252144D+00 -0.868018D+00 -0.804788D+01 -0.262389D+01 -0.449610D+01
     16  0.106553D+01  0.428919D+00 -0.119214D+01 -0.800242D-01 -0.406901D+00
     17  0.414822D+00 -0.679716D+01 -0.191221D-01 -0.458342D+00  0.417492D+00
     18 -0.113129D+01 -0.216071D-01 -0.665953D+01  0.967332D-01 -0.154459D+00
     19  0.696157D-02 -0.530914D-02 -0.585841D-01  0.378587D-02  0.374294D-01
     20  0.570146D-02 -0.345512D-01  0.111866D-01  0.371198D-01 -0.111921D-01
     21 -0.980377D-01  0.366818D-01  0.466397D-01 -0.973572D-01 -0.765881D-01
     22  0.823553D-01 -0.114353D+00  0.406128D-02  0.113601D+00  0.402927D-01
     23 -0.127986D+00  0.607556D-01 -0.276736D-02 -0.622811D-01 -0.607540D-01
     24  0.338520D-02 -0.257097D-02 -0.439697D-01 -0.392327D-02 -0.461913D-02
     25  0.715059D-01 -0.635941D-02  0.320568D-02  0.354656D-01  0.301005D-01
     26  0.119953D-02 -0.171080D-01  0.863196D-03  0.120795D-01 -0.171509D-02
     27 -0.643593D-02  0.934835D-03 -0.175059D-01 -0.109661D-01 -0.649209D-02
     28  0.469493D-01  0.536182D-01  0.388295D-01 -0.695790D-02  0.183963D-01
     29  0.136398D+00 -0.343560D-02  0.349933D-01  0.564771D-01  0.633855D-01
     30  0.274951D-01  0.128808D-01 -0.477018D-01 -0.500168D-02 -0.743961D-02
     31  0.177383D-01 -0.149242D-02  0.289534D-01  0.256732D-01  0.422912D-01
     32 -0.115837D-01 -0.207007D-01 -0.847585D-02  0.303567D-01 -0.300345D-02
     33  0.658897D-01 -0.713571D-02  0.199508D-01  0.592016D-01  0.486120D-01
     34 -0.404945D-01 -0.147789D-01 -0.363849D-01  0.385220D-01 -0.791004D-01
     35  0.733226D-01  0.146643D+00 -0.110833D+00 -0.146578D-02 -0.930933D-01
     36 -0.770414D-01 -0.983712D-01  0.150446D+00 -0.536808D-01  0.472995D-01
     37 -0.917834D-01 -0.449909D-02  0.103613D-01  0.851215D-02 -0.761228D-01
     38 -0.669857D-01  0.174369D+00  0.361237D-01 -0.513161D-01  0.975119D-01
     39  0.160447D-03  0.233957D-01  0.594355D-01 -0.575490D-02  0.782304D-02
                6             7             8             9            10 
      6  0.168588D+02
      7 -0.428755D+00  0.100737D+02
      8 -0.137335D+00 -0.570967D+00  0.147078D+02
      9 -0.158796D+00  0.468865D+00 -0.472914D+00  0.150441D+02
     10  0.106853D+00 -0.408043D+01  0.159744D+01  0.111531D+01  0.109072D+02
     11  0.767450D-01  0.157919D+01 -0.294634D+01  0.150418D+01 -0.956020D+00
     12 -0.150510D+00  0.110599D+01  0.150953D+01 -0.402368D+01 -0.634139D+00
     13 -0.259714D+01 -0.359841D+00  0.199209D+00 -0.112194D+01  0.368539D+00
     14 -0.446708D+01  0.160477D+00 -0.601442D+01  0.114324D-01  0.680304D-01
     15 -0.160698D+02 -0.114191D+01  0.128388D-01 -0.567949D+01 -0.168695D-01
[...]
 ! R9    R(4,10)                 1.0881         -DE/DX =    0.0                 !
 ! R10   R(4,11)                 1.0892         -DE/DX =    0.0                 !
 ! R11   R(6,12)                 1.0753         -DE/DX =    0.0                 !
 ! R12   R(6,13)                 1.074          -DE/DX =    0.0                 !
 ! A1    A(5,1,6)              118.2107         -DE/DX =    0.0                 !
 ! A2    A(4,3,5)              111.294          -DE/DX =    0.0                 !
 ! A3    A(4,3,7)              109.9328         -DE/DX =    0.0                 !
 ! A4    A(4,3,8)              111.1456         -DE/DX =    0.0                 !
 ! A5    A(5,3,7)              108.3913         -DE/DX =    0.0                 !
 ! A6    A(5,3,8)              107.1446         -DE/DX =    0.0                 !
 ! A7    A(7,3,8)              108.8321         -DE/DX =    0.0                 !
 ! A8    A(3,4,9)              110.1777         -DE/DX =    0.0                 !
 ! A9    A(3,4,10)             110.7872         -DE/DX =    0.0                 !
 ! A10   A(3,4,11)             110.7391         -DE/DX =    0.0                 !
 ! A11   A(9,4,10)             108.4105         -DE/DX =    0.0                 !
 ! A12   A(9,4,11)             108.1758         -DE/DX =    0.0                 !
 ! A13   A(10,4,11)            108.4692         -DE/DX =    0.0                 !
 ! A14   A(1,5,2)              122.7103         -DE/DX =    0.0                 !
 ! A15   A(1,5,3)              110.7139         -DE/DX =    0.0                 !
 ! A16   A(2,5,3)              126.5651         -DE/DX =    0.0                 !
 ! A17   A(1,6,12)             118.5165         -DE/DX =    0.0                 !
 ! A18   A(1,6,13)             113.9467         -DE/DX =    0.0                 !
 ! A19   A(12,6,13)            125.7764         -DE/DX =    0.0                 !
 ! D1    D(6,1,5,2)              0.4525         -DE/DX =    0.0                 !
 ! D2    D(6,1,5,3)            179.3292         -DE/DX =    0.0                 !
 ! D3    D(5,1,6,12)            -8.3503         -DE/DX =    0.0                 !
 ! D4    D(5,1,6,13)          -174.1184         -DE/DX =    0.0                 !
 ! D5    D(5,3,4,9)           -179.0346         -DE/DX =    0.0                 !
 ! D6    D(5,3,4,10)            61.0049         -DE/DX =    0.0                 !
 ! D7    D(5,3,4,11)           -59.3975         -DE/DX =    0.0                 !
 ! D8    D(7,3,4,9)             60.8631         -DE/DX =    0.0                 !
 ! D9    D(7,3,4,10)           -59.0974         -DE/DX =    0.0                 !
 ! D10   D(7,3,4,11)          -179.4998         -DE/DX =    0.0                 !
 ! D11   D(8,3,4,9)            -59.6955         -DE/DX =    0.0                 !
 ! D12   D(8,3,4,10)          -179.6559         -DE/DX =    0.0                 !
 ! D13   D(8,3,4,11)            59.9416         -DE/DX =    0.0                 !
 ! D14   D(4,3,5,1)            -68.4183         -DE/DX =    0.0                 !
 ! D15   D(4,3,5,2)            110.4049         -DE/DX =    0.0                 !
 ! D16   D(7,3,5,1)             52.5914         -DE/DX =    0.0                 !
 ! D17   D(7,3,5,2)           -128.5855         -DE/DX =    0.0                 !
 ! D18   D(8,3,5,1)            169.8855         -DE/DX =    0.0                 !
 ! D19   D(8,3,5,2)            -11.2913         -DE/DX =    0.0                 !
 ! D20   D(1,6,12,13)         -163.9222         -DE/DX =    0.0                 !
 --------------------------------------------------------------------------------
 GradGradGradGradGradGradGradGradGradGradGradGradGradGradGradGradGradGrad

 Leave Link  103 at Sun Mar 10 22:02:27 2019, MaxMem=   671088640 cpu:               0.5 elap:               0.1
 (Enter /shared/centos7/gaussian/g16/l9999.exe)

 ----------------------------------------------------------------------

 Electric dipole moment (input orientation):
 (Debye = 10**-18 statcoulomb cm , SI units = C m)
                  (au)            (Debye)         (10**-30 SI)
   Tot        0.843420D+00      0.214376D+01      0.715081D+01
   x         -0.451966D+00     -0.114878D+01     -0.383193D+01
   y         -0.457180D+00     -0.116204D+01     -0.387614D+01
   z          0.545959D+00      0.138769D+01      0.462883D+01

 Dipole polarizability, Alpha (input orientation).
 (esu units = cm**3 , SI units = C**2 m**2 J**-1)
 Alpha(0;0):
               (au)            (10**-24 esu)      (10**-40 SI)
   iso        0.558243D+02      0.827230D+01      0.920418D+01
   aniso      0.190449D+02      0.282217D+01      0.314008D+01
   xx         0.631896D+02      0.936374D+01      0.104186D+02
   yx         0.559349D+01      0.828870D+00      0.922242D+00
   yy         0.496548D+02      0.735808D+01      0.818697D+01
   zx         0.618292D+01      0.916214D+00      0.101943D+01
   zy        -0.212524D+01     -0.314928D+00     -0.350405D+00
   zz         0.546284D+02      0.809509D+01      0.900700D+01

 ----------------------------------------------------------------------

 Dipole orientation:
     8          2.73471569         -0.69709088          0.50969520
     8          0.33831601         -1.75811442         -2.83034787
     6         -1.59858358         -1.39311929          1.28206678
     6         -1.27392103         -3.60763990          3.11500672
     6          0.50480368         -1.31404219         -0.62166583
     6          4.84304352         -0.56951580         -0.95153339
     1         -1.60090902          0.38531801          2.32249182
     1         -3.35795049         -1.55048291          0.23422046
     1         -2.83102234         -3.65153060          4.45720501
     1          0.48477175         -3.43315665          4.16610453
     1         -1.25146390         -5.39747343          2.09894850
     1          4.72811017         -1.20551821         -2.87806192
     1          6.55367941         -0.26021824          0.09578188

 Electric dipole moment (dipole orientation):
 (Debye = 10**-18 statcoulomb cm , SI units = C m)
                  (au)            (Debye)         (10**-30 SI)
   Tot        0.843420D+00      0.214376D+01      0.715081D+01
   x          0.000000D+00      0.000000D+00      0.000000D+00
   y          0.000000D+00      0.000000D+00      0.000000D+00
   z          0.843420D+00      0.214376D+01      0.715081D+01

 Dipole polarizability, Alpha (dipole orientation).
 (esu units = cm**3 , SI units = C**2 m**2 J**-1)
 Alpha(0;0):
               (au)            (10**-24 esu)      (10**-40 SI)
   iso        0.558243D+02      0.827230D+01      0.920418D+01
   aniso      0.190449D+02      0.282217D+01      0.314008D+01
   xx         0.645546D+02      0.956601D+01      0.106436D+02
   yx         0.489313D+01      0.725087D+00      0.806768D+00
   yy         0.468412D+02      0.694115D+01      0.772307D+01
   zx        -0.384927D+01     -0.570403D+00     -0.634659D+00
   zy        -0.191165D+01     -0.283277D+00     -0.315188D+00
   zz         0.560769D+02      0.830974D+01      0.924584D+01

 ----------------------------------------------------------------------

 Test job not archived.
 1\1\GINC-C0052\Freq\UM062X\6-311+G(2df,2p)\C4H7O2(2)\UNDERKOFFLER.C\10
 -Mar-2019\0\\#P Geom=AllCheck Guess=TCheck SCRF=Check Test GenChk UM06
 2X/6-311+G(2df,2p) Freq\\Gaussian input prepared by ASE\\0,2\O,1.11539
 3129,-0.7044682015,0.75012521\O,1.1144774094,0.0158865551,-1.377885945
 9\C,-0.9320363478,-0.8243026957,-0.4137551463\C,-1.103313346,-2.343215
 7135,-0.3290471742\C,0.5194649399,-0.4401156385,-0.4467241952\C,2.4390
 461537,-0.4265849797,0.8840457157\H,-1.3940339836,-0.349277186,0.45210
 98083\H,-1.3889353986,-0.4279881769,-1.3167341936\H,-2.1601733334,-2.6
 020058574,-0.3234243199\H,-0.6492283074,-2.7329565516,0.5797651398\H,-
 0.6383658984,-2.8320641479,-1.1841255642\H,2.994482637,-0.1397765553,0
 .0090995096\H,2.8606266927,-0.7521406505,1.8166053404\\Version=EM64L-G
 16RevA.03\State=2-A\HF=-307.0074267\S2=0.75487\S2-1=0.\S2A=0.750018\RM
 SD=5.433e-09\RMSF=3.457e-07\ZeroPoint=0.1048088\Thermal=0.1122499\Dipo
 le=-0.4519659,-0.4571803,0.5459585\DipoleDeriv=-1.2399385,-0.1651709,-
 0.5171584,-0.0784855,-0.1911131,0.1959628,-0.620284,0.1313495,-1.08373
 14,-0.6324183,-0.252756,0.3476531,-0.0321287,-0.469195,0.3232513,-0.10
 36257,0.2366452,-1.0408962,-0.1543692,-0.0911927,0.0155564,-0.1418456,
 -0.0126233,0.0194078,0.049113,0.0311419,0.0727785,-0.0083575,-0.017526
 4,-0.0100552,0.0810321,0.1040862,0.016465,-0.0244985,0.0014385,0.06323
 81,1.3266339,0.3843625,0.0568488,0.0545077,0.4300061,-0.5003891,0.6415
 615,-0.3358382,1.7784704,0.6547083,0.1621558,0.1987696,0.1460934,-0.21
 52511,-0.139268,0.0774909,-0.1255036,0.1542878,0.0140035,0.0021315,0.0
 207495,0.0144463,0.0128461,-0.0532407,0.0339631,-0.0745424,-0.0103244,
 0.0173442,-0.0020522,-0.0298492,0.0079268,0.0146748,0.0405641,-0.05896
 54,0.0534852,-0.0155786,-0.1146397,-0.0682316,-0.0013982,-0.0675154,0.
 0078459,-0.0029451,0.0002444,0.0004309,0.0799889,0.0543471,0.0393241,-
 0.0617862,0.0154566,0.0124539,0.0251537,-0.0491415,0.0621199,-0.040771
 6,0.0426389,0.0419791,0.0687013,0.0054226,-0.0081182,-0.0318142,0.0531
 363,-0.0696791,-0.0358678,0.023265,-0.0070102,-0.0680263,-0.0134442,0.
 1686393,0.0230902,0.0376293,0.0384586,0.0437595,0.0167824,-0.026013,-0
 .020005,0.0085338,0.1457482,0.0837621,-0.0366235,0.0504937,0.0346467\P
 olar=63.1896316,5.5934895,49.6547714,6.1829197,-2.1252394,54.6283799\Q
 uadrupole=3.1242967,-1.1322055,-1.9920912,-0.3849727,2.0911595,1.27259
 99\PG=C01 [X(C4H7O2)]\NImag=0\\0.50519030,0.07225557,0.08545164,0.1082
 4851,-0.08866418,0.37968860,0.02760725,-0.00087185,0.00248454,0.298107
 09,0.00204515,0.01194960,0.04599797,0.16404971,0.15769619,-0.00471593,
 0.04417878,-0.10642819,-0.29671655,-0.26161112,0.59293625,-0.02746214,
 -0.00549461,-0.01113234,-0.01835010,-0.01499138,0.01172443,0.51955378,
 0.00664029,0.01149536,0.00253092,-0.02210575,0.01576713,0.01321174,-0.
 03666155,0.46319318,-0.04379108,-0.00455268,-0.00805054,0.03611050,0.0
 2010653,-0.00277580,0.01671548,-0.01206590,0.63102191,-0.00141355,0.00
 121143,-0.00079043,-0.00551072,0.00326517,0.00275858,-0.07758196,-0.01
 489726,-0.00318506,0.58396215,0.00234333,-0.00086353,0.00299746,0.0036
 8132,0.00117794,-0.00248942,-0.00591621,-0.18852663,0.00595180,-0.0108
 2655,0.46798947,-0.00081152,0.00129852,-0.00065487,0.00149574,-0.00052
 840,-0.00012082,-0.00259856,0.00655674,-0.07725154,0.00239177,0.005390
 32,0.58206709,-0.14175644,-0.00047366,-0.04984068,-0.30597763,-0.14829
 777,0.27767170,-0.20270577,-0.02095872,-0.00062465,-0.00062956,-0.0173
 1759,0.00291632,0.72648565,-0.00246893,-0.07613506,0.02539241,-0.14245
 295,-0.18112122,0.20417634,-0.02364255,-0.09111859,-0.00536029,-0.0388
 1780,-0.01319842,0.00098664,0.18163884,0.35520631,-0.04816205,0.026917
 84,-0.17890019,0.25929595,0.19933062,-0.48570144,-0.00508526,-0.004810
 84,-0.07831833,0.00174204,-0.00004543,-0.00062288,-0.18240608,-0.21996
 882,0.75511556,-0.30539741,-0.06462433,-0.03251935,0.00074581,-0.00369
 219,0.01378371,0.00347839,-0.00004149,0.00053364,-0.00035580,-0.000051
 25,-0.00048858,-0.04917037,0.00163724,-0.04253290,0.57199374,-0.063667
 05,-0.03328005,0.02024094,0.00291306,-0.00279152,0.00087598,0.00058373
 ,0.00160293,0.00282021,0.00038697,0.00018243,-0.00023448,0.00371986,0.
 00577789,-0.00430116,0.08036070,0.09749598,-0.00331450,0.02785699,-0.1
 0034239,0.00029147,-0.00105562,0.00088341,-0.00098103,0.00233711,-0.00
 411270,0.00011327,0.00015456,-0.00004822,-0.05047709,-0.00967063,-0.00
 499912,0.03340998,-0.20612099,0.66635527,0.00193875,-0.00131521,-0.002
 02523,-0.00542106,-0.00508406,-0.00099616,-0.09974047,0.05117938,0.088
 14556,0.00294089,-0.00189965,-0.00457285,-0.01199789,0.01700649,0.0309
 3506,-0.00087209,-0.00068102,-0.00041006,0.10478388,0.00019493,-0.0001
 6814,0.00015646,-0.00257986,-0.00224191,-0.00021015,0.05007140,-0.0892
 5682,-0.09010917,0.01484884,-0.01790367,-0.02739860,-0.00376053,0.0037
 4430,0.00794332,0.00016697,-0.00010666,0.00011152,-0.05119876,0.103803
 44,-0.00142960,0.00001231,-0.00000712,0.00109124,-0.00068858,0.0015286
 9,0.08959069,-0.09171029,-0.22007739,-0.00161520,0.00160394,0.00299575
 ,0.00110964,0.00230375,-0.00298020,0.00029947,0.00009656,0.00027377,-0
 .10013845,0.09931372,0.23479539,-0.00870133,-0.00200642,-0.00104888,0.
 00318544,-0.00045718,0.00149461,-0.09880787,0.04066032,-0.09156455,0.0
 0258514,-0.00184287,0.00513134,-0.01275002,0.01353066,-0.03046983,0.00
 040031,0.00035651,-0.00124662,0.00705064,-0.00653213,0.01184782,0.1069
 9764,-0.00339011,0.00041188,-0.00045956,0.00019733,-0.00035062,-0.0006
 1929,0.04401026,-0.08141541,0.08179373,0.01404150,-0.01313278,0.028125
 63,-0.00347426,0.00143752,-0.00743364,-0.00000477,0.00040047,-0.000187
 69,-0.00744876,0.00512776,-0.01126735,-0.04269174,0.09103989,-0.000894
 17,0.00023031,0.00080718,0.00109262,-0.00058641,0.00131763,-0.09908545
 ,0.08046068,-0.24299624,0.00089511,0.00009849,0.00118914,0.00202872,-0
 .00028303,-0.00206518,0.00056123,0.00027295,0.00035193,-0.01102574,0.0
 0862899,-0.01852335,0.10590160,-0.08890707,0.25790397,0.00012372,-0.00
 034768,0.00015937,0.00008257,-0.00011023,-0.00011648,-0.00092094,0.000
 15313,0.00003893,-0.30818811,-0.06071569,0.00131432,0.00113405,0.00034
 717,-0.00018059,0.00008862,-0.00003498,0.00007129,0.00031467,-0.000337
 00,-0.00022055,0.00025722,-0.00032894,0.00019951,0.33130064,-0.0010202
 1,0.00092554,-0.00097395,-0.00263134,0.00048098,0.00128138,-0.03445404
 ,-0.01121345,-0.00058259,-0.05909500,-0.05897182,0.00016788,0.00453629
 ,-0.00711627,0.00086489,-0.00016322,0.00008709,-0.00009151,0.00028937,
 0.00180279,-0.00043334,0.00031508,0.00149919,0.00039992,0.06638327,0.0
 6718354,-0.00029379,-0.00063739,0.00038344,-0.00006648,-0.00020465,0.0
 0036037,0.00203086,0.00115439,-0.00066605,0.00147910,-0.00003038,-0.04
 780383,-0.00064093,0.00077788,-0.00062564,0.00040878,-0.00000852,0.000
 10983,-0.00051857,-0.00005866,0.00002388,0.00037316,-0.00015139,0.0000
 1379,-0.00145847,-0.00048226,0.04618886,-0.00037054,-0.00040272,-0.000
 15234,-0.00006791,-0.00002230,-0.00033447,0.00121867,-0.00172363,0.004
 13519,-0.09656450,0.04114258,-0.09641787,0.00061881,-0.00006999,0.0014
 5151,-0.00025834,-0.00003412,-0.00001843,-0.00002400,0.00048559,-0.000
 26178,0.00056448,-0.00121154,0.00027951,-0.01184110,0.01153275,-0.0269
 3544,0.10017483,-0.00008510,0.00051508,-0.00089952,-0.00065595,0.00017
 995,-0.00064973,0.01383502,-0.01404532,0.02888754,0.03946744,-0.079004
 73,0.07779437,0.00237311,0.00042599,0.00276920,-0.00067610,-0.00000996
 ,-0.00042972,0.00040316,0.00157953,-0.00025746,-0.00154800,-0.00636871
 ,-0.00055785,-0.00244982,0.00218787,-0.00736063,-0.04317462,0.08928572
 ,0.00002665,-0.00112298,0.00061238,0.00032573,-0.00004815,0.00037212,0
 .00090364,0.00059473,0.00005411,-0.09567208,0.08002446,-0.24158176,-0.
 00140998,0.00072320,-0.00145972,0.00035894,-0.00002126,0.00009807,0.00
 031961,0.00027921,0.00065831,-0.00003118,-0.00043103,0.00145521,0.0008
 8785,-0.00151619,0.00145555,0.10555693,-0.08749285,0.25819185,-0.00010
 383,0.00023033,0.00022076,0.00023510,0.00041595,0.00015482,0.00149476,
 -0.00265599,-0.00441727,-0.09919482,0.05123793,0.09166119,0.00080073,-
 0.00039758,-0.00130253,-0.00000315,0.00000051,0.00002637,0.00077678,-0
 .00136300,-0.00019163,-0.00014382,0.00051112,0.00019993,-0.01231535,0.
 01439116,0.02564937,0.00650555,-0.00758507,-0.01124170,0.10195906,-0.0
 0061966,0.00002388,0.00004416,-0.00068894,-0.00008142,0.00115826,0.012
 90451,-0.01686514,-0.02638065,0.05035982,-0.09783615,-0.09218045,0.002
 89098,0.00121451,-0.00222105,0.00011986,-0.00003410,-0.00006471,-0.001
 44413,-0.00641170,0.00100553,0.00037079,0.00140443,0.00027692,-0.00261
 244,0.00315223,0.00701786,-0.00647418,0.00525216,0.00894869,-0.0547490
 1,0.11022398,-0.00056251,-0.00007474,-0.00021457,-0.00070215,-0.000236
 62,0.00005994,-0.00233911,0.00165557,0.00335401,0.09182901,-0.09364640
 ,-0.21818432,0.00067318,-0.00043877,0.00024398,0.00005757,0.00001002,0
 .00005233,0.00012070,0.00130857,0.00127224,-0.00032997,-0.00043790,0.0
 0054107,-0.00070317,0.00135697,0.00056445,0.01273112,-0.01183518,-0.01
 984373,-0.10074560,0.10240492,0.23218526,-0.02625096,-0.00855034,0.021
 53461,0.00210991,0.00162841,-0.00313666,0.00007822,0.00012260,-0.00046
 191,0.00005173,0.00002221,0.00001397,0.00044091,-0.00280921,0.00872555
 ,-0.12948582,-0.04840446,0.11685585,0.00019393,-0.00002380,-0.00007577
 ,-0.00016020,-0.00005268,-0.00013179,-0.00002258,0.00000680,-0.0000384
 0,0.00003031,0.00013471,-0.00002968,-0.00002001,-0.00002820,-0.0000310
 3,0.14261083,-0.00673316,-0.00029470,0.00490257,0.00063702,-0.00088789
 ,0.00082860,-0.00004341,-0.00003673,-0.00008126,-0.00001690,0.00005882
 ,0.00002102,0.00125034,-0.00019977,-0.00001883,-0.04621324,-0.02830227
 ,0.07461395,0.00011719,0.00000438,0.00001178,0.00000384,-0.00001212,-0
 .00001949,0.00002231,-0.00002331,-0.00001348,-0.00001979,0.00000782,0.
 00004052,-0.00002261,-0.00002566,-0.00004546,0.05406813,0.03114741,-0.
 00453036,-0.00320459,0.00991798,-0.00293519,0.00018758,-0.00319050,0.0
 0024730,-0.00007527,-0.00023322,0.00003472,-0.00000107,-0.00001578,-0.
 00077690,-0.00019977,0.00075344,0.13145836,0.08638336,-0.26575606,0.00
 015039,0.00005120,0.00002096,-0.00004969,0.00001081,-0.00003135,-0.000
 00553,0.00000977,0.00000345,0.00000236,0.00002124,-0.00001156,-0.00000
 638,-0.00001100,-0.00000768,-0.13401668,-0.08367074,0.26494477,-0.0234
 0382,0.01038949,-0.03513855,0.00325424,0.00125071,-0.00157159,-0.00025
 456,0.00028867,-0.00163477,-0.00010090,0.00014245,-0.00003527,-0.00449
 247,-0.00350138,0.00798914,-0.09116388,0.02450029,-0.09432048,0.000055
 95,0.00002735,-0.00000587,-0.00047761,-0.00015741,-0.00002108,-0.00001
 338,-0.00009092,0.00001082,0.00001373,-0.00003877,0.00000528,0.0000090
 0,-0.00002940,0.00000196,0.01042372,-0.00304974,0.01042760,0.10614998,
 -0.00549507,-0.00003150,-0.01126569,0.00050820,0.00022277,-0.00013138,
 -0.00020117,0.00041949,-0.00042727,0.00007236,0.00002906,0.00000081,-0
 .00212689,0.00108280,0.00097392,0.03318182,-0.04102224,0.11254674,0.00
 007600,0.00002670,0.00000944,-0.00015886,-0.00004149,-0.00001441,0.000
 03088,0.00000562,-0.00000276,-0.00002804,-0.00000539,0.00002166,-0.000
 01374,-0.00001704,-0.00002097,0.00388584,-0.00143598,0.00049847,-0.029
 73134,0.04076719,0.00023037,-0.00223819,0.00318831,-0.00176742,-0.0006
 6314,0.00075834,0.00000936,0.00016043,0.00005179,0.00001916,-0.0000083
 4,0.00003205,0.00177677,0.00156109,-0.00044027,-0.10533084,0.09998639,
 -0.29286611,0.00001574,-0.00001639,0.00001907,-0.00000780,-0.00003524,
 0.00003619,0.00001352,-0.00000096,-0.00000810,-0.00003630,0.00001059,-
 0.00000082,-0.00000731,0.00000153,-0.00002298,-0.00920806,0.00343082,-
 0.00639445,0.11429281,-0.10218858,0.29564700\\0.,0.00000017,0.00000015
 ,-0.00000055,0.00000022,0.00000005,-0.00000015,-0.00000037,0.00000014,
 0.00000028,-0.00000033,0.00000012,-0.00000017,0.00000026,-0.00000049,0
 .00000001,0.00000050,-0.00000030,-0.00000017,-0.00000044,0.00000025,-0
 .00000034,-0.00000041,0.00000021,0.00000037,-0.00000065,0.00000025,0.0
 0000054,-0.00000027,0.00000011,0.00000035,-0.00000021,0.00000005,-0.00
 000029,0.00000081,-0.00000028,0.00000011,0.00000072,-0.00000026\\\@


 THERE IS AN OLD, OLD RECIPE IN MAINE FOR STEWING COOT. PLACE THE
 BIRD IN A KETTLE OF WATER WITH A RED BUILDING BRICK FREE OF MORTAR AND
 BLEMISHES. PARBOIL THE COOT AND BRICK TOGETHER FOR THREE HOURS.
 POUR OFF THE WATER, REFILL THE KETTLE, AND AGAIN PARBOIL FOR THREE HOURS.
 ONCE AGAIN POUR OFF THE WATER, FOR THE LAST TIME ADD FRESH WATER,
 AND LET THE COOT AND BRICK SIMMER TOGETHER OVERNIGHT. IN THE MORNING,
 THROW AWAY THE COOT AND EAT THE BRICK.
 Job cpu time:       0 days  3 hours  6 minutes  8.2 seconds.
 Elapsed time:       0 days  0 hours  9 minutes 19.1 seconds.
 File lengths (MBytes):  RWF=   1392 Int=      0 D2E=      0 Chk=     32 Scr=     32
 Normal termination of Gaussian 16 at Sun Mar 10 22:02:27 2019.
