 Entering Gaussian System, Link 0=g16
 Input=OJWHOIQFDAGZNF-UHFFFAOYSA-N_36by10.0_tor24_a1.com
 Output=OJWHOIQFDAGZNF-UHFFFAOYSA-N_36by10.0_tor24_a1.log
 Initial command:
 /shared/centos7/gaussian/g16/l1.exe "/scratch/underkoffler.c/gaussian_scratch/Gau-35334.inp" -scrdir="/scratch/underkoffler.c/gaussian_scratch/"
 Entering Link 1 = /shared/centos7/gaussian/g16/l1.exe PID=     35335.
  
 Copyright (c) 1988,1990,1992,1993,1995,1998,2003,2009,2016,
            Gaussian, Inc.  All Rights Reserved.
  
 This is part of the Gaussian(R) 16 program.  It is based on
 the Gaussian(R) 09 system (copyright 2009, Gaussian, Inc.),
 the Gaussian(R) 03 system (copyright 2003, Gaussian, Inc.),
 the Gaussian(R) 98 system (copyright 1998, Gaussian, Inc.),
 the Gaussian(R) 94 system (copyright 1995, Gaussian, Inc.),
 the Gaussian 92(TM) system (copyright 1992, Gaussian, Inc.),
 the Gaussian 90(TM) system (copyright 1990, Gaussian, Inc.),
 the Gaussian 88(TM) system (copyright 1988, Gaussian, Inc.),
 the Gaussian 86(TM) system (copyright 1986, Carnegie Mellon
 University), and the Gaussian 82(TM) system (copyright 1983,
 Carnegie Mellon University). Gaussian is a federally registered
 trademark of Gaussian, Inc.
  
 This software contains proprietary and confidential information,
 including trade secrets, belonging to Gaussian, Inc.
  
 This software is provided under written license and may be
 used, copied, transmitted, or stored only in accord with that
 written license.
  
 The following legend is applicable only to US Government
 contracts under FAR:
  
                    RESTRICTED RIGHTS LEGEND
  
 Use, reproduction and disclosure by the US Government is
 subject to restrictions as set forth in subparagraphs (a)
 and (c) of the Commercial Computer Software - Restricted
 Rights clause in FAR 52.227-19.
  
 Gaussian, Inc.
 340 Quinnipiac St., Bldg. 40, Wallingford CT 06492
  
  
 ---------------------------------------------------------------
 Warning -- This program may not be used in any manner that
 competes with the business of Gaussian, Inc. or will provide
 assistance to any competitor of Gaussian, Inc.  The licensee
 of this program is prohibited from giving any competitor of
 Gaussian, Inc. access to this program.  By using this program,
 the user acknowledges that Gaussian, Inc. is engaged in the
 business of creating and licensing software in the field of
 computational chemistry and represents and warrants to the
 licensee that it is not a competitor of Gaussian, Inc. and that
 it will not use this program in any manner prohibited above.
 ---------------------------------------------------------------
  

 Cite this work as:
 Gaussian 16, Revision A.03,
 M. J. Frisch, G. W. Trucks, H. B. Schlegel, G. E. Scuseria, 
 M. A. Robb, J. R. Cheeseman, G. Scalmani, V. Barone, 
 G. A. Petersson, H. Nakatsuji, X. Li, M. Caricato, A. V. Marenich, 
 J. Bloino, B. G. Janesko, R. Gomperts, B. Mennucci, H. P. Hratchian, 
 J. V. Ortiz, A. F. Izmaylov, J. L. Sonnenberg, D. Williams-Young, 
 F. Ding, F. Lipparini, F. Egidi, J. Goings, B. Peng, A. Petrone, 
 T. Henderson, D. Ranasinghe, V. G. Zakrzewski, J. Gao, N. Rega, 
 G. Zheng, W. Liang, M. Hada, M. Ehara, K. Toyota, R. Fukuda, 
 J. Hasegawa, M. Ishida, T. Nakajima, Y. Honda, O. Kitao, H. Nakai, 
 T. Vreven, K. Throssell, J. A. Montgomery, Jr., J. E. Peralta, 
 F. Ogliaro, M. J. Bearpark, J. J. Heyd, E. N. Brothers, K. N. Kudin, 
 V. N. Staroverov, T. A. Keith, R. Kobayashi, J. Normand, 
 K. Raghavachari, A. P. Rendell, J. C. Burant, S. S. Iyengar, 
 J. Tomasi, M. Cossi, J. M. Millam, M. Klene, C. Adamo, R. Cammi, 
 J. W. Ochterski, R. L. Martin, K. Morokuma, O. Farkas, 
 J. B. Foresman, and D. J. Fox, Gaussian, Inc., Wallingford CT, 2016.
 
 ******************************************
 Gaussian 16:  EM64L-G16RevA.03 25-Dec-2016
                11-Mar-2019 
 ******************************************
 %nprocshared=20
 Will use up to   20 processors via shared memory.
 %mem=5GB
 ----------------------------------------------
 #p m062x/6-311+g(2df,2p) Opt=(CalcFC,ModRedun)
 ----------------------------------------------
 1/10=4,18=120,19=15,26=3,38=1/1,3;
 2/9=110,12=2,17=6,18=5,40=1/2;
 3/5=4,6=6,7=214,11=2,25=1,30=1,71=2,74=-55,140=1/1,2,3;
 4//1;
 5/5=2,38=5/2;
 8/6=4,10=90,11=11/1;
 11/6=1,8=1,9=11,15=111,16=1/1,2,10;
 10/6=1,13=1/2;
 6/7=2,8=2,9=2,10=2,28=1/1;
 7/10=1,18=20,25=1/1,2,3,16;
 1/10=4,18=20,19=15,26=3/3(2);
 2/9=110/2;
 99//99;
 2/9=110/2;
 3/5=4,6=6,7=214,11=2,25=1,30=1,71=1,74=-55/1,2,3;
 4/5=5,16=3,69=1/1;
 5/5=2,38=5/2;
 7//1,2,3,16;
 1/18=20,19=15,26=3/3(-5);
 2/9=110/2;
 6/7=2,8=2,9=2,10=2,19=2,28=1/1;
 99/9=1/99;
 Leave Link    1 at Mon Mar 11 00:05:20 2019, MaxMem=   671088640 cpu:              27.3 elap:               1.4
 (Enter /shared/centos7/gaussian/g16/l101.exe)
 ----------------------------------------
 Gaussian Input Prepared from Scan Object
 ----------------------------------------
 Symbolic Z-matrix:
 Charge =  0 Multiplicity = 2
 O                     1.11539  -0.70447   0.75013 
 O                     1.11448   0.01589  -1.37789 
 C                    -0.93204  -0.8243   -0.41376 
 C                    -1.10331  -2.34322  -0.32905 
 C                     0.51946  -0.44012  -0.44672 
 C                     2.43905  -0.42658   0.88405 
 H                    -1.39403  -0.34928   0.45211 
 H                    -1.38894  -0.42799  -1.31673 
 H                    -2.16017  -2.60201  -0.32342 
 H                    -0.64923  -2.73296   0.57977 
 H                    -0.63837  -2.83206  -1.18413 
 H                     2.99448  -0.13978   0.0091 
 H                     2.86063  -0.75214   1.81661 
 
 The following ModRedundant input section has been read:
 B       4       9 B                                                           
 B       6      12 B                                                           
 B       6      13 B                                                           
 B       1       6 B                                                           
 B       3       7 B                                                           
 B       3       5 B                                                           
 B       4      10 B                                                           
 B       3       8 B                                                           
 B       4      11 B                                                           
 B       2       5 B                                                           
 B       1       5 B                                                           
 B       3       4 B                                                           
 D       8       3       5       2 S  36 10.000                                
 
 Add atom      6 valence  3 ND=      2 dihedral       1      6     12     13
 ITRead=  0  0  0  0  0  0  0  0  0  0  0  0  0
 MicOpt= -1 -1 -1 -1 -1 -1 -1 -1 -1 -1 -1 -1 -1
 NAtoms=     13 NQM=       13 NQMF=       0 NMMI=      0 NMMIF=      0
                NMic=       0 NMicF=      0.
                    Isotopes and Nuclear Properties:
 (Nuclear quadrupole moments (NQMom) in fm**2, nuclear magnetic moments (NMagM)
  in nuclear magnetons)

  Atom         1           2           3           4           5           6           7           8           9          10
 IAtWgt=          16          16          12          12          12          12           1           1           1           1
 AtmWgt=  15.9949146  15.9949146  12.0000000  12.0000000  12.0000000  12.0000000   1.0078250   1.0078250   1.0078250   1.0078250
 NucSpn=           0           0           0           0           0           0           1           1           1           1
 AtZEff=  -0.0000000  -0.0000000  -0.0000000  -0.0000000  -0.0000000  -0.0000000  -0.0000000  -0.0000000  -0.0000000  -0.0000000
 NQMom=    0.0000000   0.0000000   0.0000000   0.0000000   0.0000000   0.0000000   0.0000000   0.0000000   0.0000000   0.0000000
 NMagM=    0.0000000   0.0000000   0.0000000   0.0000000   0.0000000   0.0000000   2.7928460   2.7928460   2.7928460   2.7928460
 AtZNuc=   8.0000000   8.0000000   6.0000000   6.0000000   6.0000000   6.0000000   1.0000000   1.0000000   1.0000000   1.0000000

  Atom        11          12          13
 IAtWgt=           1           1           1
 AtmWgt=   1.0078250   1.0078250   1.0078250
 NucSpn=           1           1           1
 AtZEff=  -0.0000000  -0.0000000  -0.0000000
 NQMom=    0.0000000   0.0000000   0.0000000
 NMagM=    2.7928460   2.7928460   2.7928460
 AtZNuc=   1.0000000   1.0000000   1.0000000
 Leave Link  101 at Mon Mar 11 00:05:21 2019, MaxMem=   671088640 cpu:               3.1 elap:               0.2
 (Enter /shared/centos7/gaussian/g16/l103.exe)

 GradGradGradGradGradGradGradGradGradGradGradGradGradGradGradGradGradGrad
 Berny optimization.
 Initialization pass.
                           ----------------------------
                           !    Initial Parameters    !
                           ! (Angstroms and Degrees)  !
 --------------------------                            --------------------------
 ! Name  Definition              Value          Derivative Info.                !
 --------------------------------------------------------------------------------
 ! R1    R(1,5)                  1.3629         calculate D2E/DX2 analytically  !
 ! R2    R(1,6)                  1.3591         calculate D2E/DX2 analytically  !
 ! R3    R(2,5)                  1.1954         calculate D2E/DX2 analytically  !
 ! R4    R(3,4)                  1.5309         calculate D2E/DX2 analytically  !
 ! R5    R(3,5)                  1.5018         calculate D2E/DX2 analytically  !
 ! R6    R(3,7)                  1.0903         calculate D2E/DX2 analytically  !
 ! R7    R(3,8)                  1.0868         calculate D2E/DX2 analytically  !
 ! R8    R(4,9)                  1.0881         calculate D2E/DX2 analytically  !
 ! R9    R(4,10)                 1.0881         calculate D2E/DX2 analytically  !
 ! R10   R(4,11)                 1.0892         calculate D2E/DX2 analytically  !
 ! R11   R(6,12)                 1.0753         calculate D2E/DX2 analytically  !
 ! R12   R(6,13)                 1.074          calculate D2E/DX2 analytically  !
 ! A1    A(5,1,6)              118.2107         calculate D2E/DX2 analytically  !
 ! A2    A(4,3,5)              111.2941         calculate D2E/DX2 analytically  !
 ! A3    A(4,3,7)              109.9328         calculate D2E/DX2 analytically  !
 ! A4    A(4,3,8)              111.1456         calculate D2E/DX2 analytically  !
 ! A5    A(5,3,7)              108.3912         calculate D2E/DX2 analytically  !
 ! A6    A(5,3,8)              107.1446         calculate D2E/DX2 analytically  !
 ! A7    A(7,3,8)              108.8321         calculate D2E/DX2 analytically  !
 ! A8    A(3,4,9)              110.1777         calculate D2E/DX2 analytically  !
 ! A9    A(3,4,10)             110.7872         calculate D2E/DX2 analytically  !
 ! A10   A(3,4,11)             110.7391         calculate D2E/DX2 analytically  !
 ! A11   A(9,4,10)             108.4105         calculate D2E/DX2 analytically  !
 ! A12   A(9,4,11)             108.1758         calculate D2E/DX2 analytically  !
 ! A13   A(10,4,11)            108.4692         calculate D2E/DX2 analytically  !
 ! A14   A(1,5,2)              122.7103         calculate D2E/DX2 analytically  !
 ! A15   A(1,5,3)              110.7138         calculate D2E/DX2 analytically  !
 ! A16   A(2,5,3)              126.5651         calculate D2E/DX2 analytically  !
 ! A17   A(1,6,12)             118.5166         calculate D2E/DX2 analytically  !
 ! A18   A(1,6,13)             113.9467         calculate D2E/DX2 analytically  !
 ! A19   A(12,6,13)            125.7766         calculate D2E/DX2 analytically  !
 ! D1    D(6,1,5,2)              0.4525         calculate D2E/DX2 analytically  !
 ! D2    D(6,1,5,3)            179.3292         calculate D2E/DX2 analytically  !
 ! D3    D(5,1,6,12)            -8.3496         calculate D2E/DX2 analytically  !
 ! D4    D(5,1,6,13)          -174.1189         calculate D2E/DX2 analytically  !
 ! D5    D(5,3,4,9)           -179.0346         calculate D2E/DX2 analytically  !
 ! D6    D(5,3,4,10)            61.0049         calculate D2E/DX2 analytically  !
 ! D7    D(5,3,4,11)           -59.3975         calculate D2E/DX2 analytically  !
 ! D8    D(7,3,4,9)             60.8631         calculate D2E/DX2 analytically  !
 ! D9    D(7,3,4,10)           -59.0974         calculate D2E/DX2 analytically  !
 ! D10   D(7,3,4,11)          -179.4998         calculate D2E/DX2 analytically  !
 ! D11   D(8,3,4,9)            -59.6954         calculate D2E/DX2 analytically  !
 ! D12   D(8,3,4,10)          -179.6559         calculate D2E/DX2 analytically  !
 ! D13   D(8,3,4,11)            59.9417         calculate D2E/DX2 analytically  !
 ! D14   D(4,3,5,1)            -68.4179         calculate D2E/DX2 analytically  !
 ! D15   D(4,3,5,2)            110.4053         calculate D2E/DX2 analytically  !
 ! D16   D(7,3,5,1)             52.5918         calculate D2E/DX2 analytically  !
 ! D17   D(7,3,5,2)           -128.585          calculate D2E/DX2 analytically  !
 ! D18   D(8,3,5,1)            169.8859         calculate D2E/DX2 analytically  !
 ! D19   D(8,3,5,2)            -11.2909         Scan                            !
 ! D20   D(1,6,12,13)         -163.9235         calculate D2E/DX2 analytically  !
 --------------------------------------------------------------------------------
 Trust Radius=3.00D-01 FncErr=1.00D-07 GrdErr=1.00D-06 EigMax=2.50D+02 EigMin=1.00D-04
 Number of optimizations in scan=  37
 Number of steps in this run=     61 maximum allowed number of steps=    100.
 GradGradGradGradGradGradGradGradGradGradGradGradGradGradGradGradGradGrad

 Leave Link  103 at Mon Mar 11 00:05:21 2019, MaxMem=   671088640 cpu:               0.2 elap:               0.0
 (Enter /shared/centos7/gaussian/g16/l202.exe)
                          Input orientation:                          
 ---------------------------------------------------------------------
 Center     Atomic      Atomic             Coordinates (Angstroms)
 Number     Number       Type             X           Y           Z
 ---------------------------------------------------------------------
      1          8           0        1.115393   -0.704468    0.750125
      2          8           0        1.114477    0.015887   -1.377886
      3          6           0       -0.932036   -0.824303   -0.413755
      4          6           0       -1.103313   -2.343216   -0.329047
      5          6           0        0.519465   -0.440116   -0.446724
      6          6           0        2.439046   -0.426585    0.884046
      7          1           0       -1.394034   -0.349277    0.452110
      8          1           0       -1.388935   -0.427988   -1.316734
      9          1           0       -2.160173   -2.602006   -0.323424
     10          1           0       -0.649228   -2.732957    0.579765
     11          1           0       -0.638366   -2.832064   -1.184126
     12          1           0        2.994483   -0.139777    0.009100
     13          1           0        2.860627   -0.752141    1.816605
 ---------------------------------------------------------------------
                    Distance matrix (angstroms):
                    1          2          3          4          5
     1  O    0.000000
     2  O    2.246629   0.000000
     3  C    2.358166   2.413231   0.000000
     4  C    2.961885   3.403531   1.530885   0.000000
     5  C    1.362887   1.195425   1.501846   2.503807   0.000000
     6  C    1.359121   2.658307   3.634097   4.206350   2.335792
     7  H    2.551901   3.126477   1.090327   2.161138   2.116042
     8  H    3.258836   2.543195   1.086827   2.173753   2.097393
     9  H    3.934780   4.323030   2.162570   1.088098   3.445204
    10  H    2.694007   3.807781   2.170259   1.088132   2.770676
    11  H    3.368035   3.349750   2.170442   1.089178   2.757853
    12  H    2.097373   2.341448   4.008108   4.664914   2.534500
    13  H    2.045848   3.720709   4.400455   4.779975   3.271247
                    6          7          8          9         10
     6  C    0.000000
     7  H    3.858115   0.000000
     8  H    4.415527   1.770602   0.000000
     9  H    5.229078   2.502640   2.511538   0.000000
    10  H    3.866442   2.500592   3.075184   1.765178   0.000000
    11  H    4.419743   3.067985   2.522007   1.763415   1.766706
    12  H    1.075314   4.415793   4.588601   5.722204   4.508533
    13  H    1.073957   4.486233   5.289770   5.762826   4.215743
                   11         12         13
    11  H    0.000000
    12  H    4.676514   0.000000
    13  H    5.057017   1.913109   0.000000
 Stoichiometry    C4H7O2(2)
 Framework group  C1[X(C4H7O2)]
 Deg. of freedom    33
 Full point group                 C1      NOp   1
 Largest Abelian subgroup         C1      NOp   1
 Largest concise Abelian subgroup C1      NOp   1
                         Standard orientation:                         
 ---------------------------------------------------------------------
 Center     Atomic      Atomic             Coordinates (Angstroms)
 Number     Number       Type             X           Y           Z
 ---------------------------------------------------------------------
      1          8           0        0.826605   -0.678393    0.261992
      2          8           0        0.592844    1.485869   -0.293588
      3          6           0       -1.316412    0.266281    0.537692
      4          6           0       -2.050327   -0.653217   -0.441850
      5          6           0        0.112399    0.474185    0.124393
      6          6           0        2.140788   -0.665106   -0.084360
      7          1           0       -1.325461   -0.171414    1.536269
      8          1           0       -1.783549    1.246677    0.580128
      9          1           0       -3.086834   -0.777627   -0.135042
     10          1           0       -1.581647   -1.634672   -0.475249
     11          1           0       -2.041525   -0.232280   -1.446361
     12          1           0        2.532753    0.205975   -0.578203
     13          1           0        2.611979   -1.629334   -0.044022
 ---------------------------------------------------------------------
 Rotational constants (GHZ):           6.4636152           2.6425151           2.0916942
 Leave Link  202 at Mon Mar 11 00:05:21 2019, MaxMem=   671088640 cpu:               0.2 elap:               0.0
 (Enter /shared/centos7/gaussian/g16/l301.exe)
 Standard basis: 6-311+G(2df,2p) (5D, 7F)
 Ernie: Thresh=  0.10000D-02 Tol=  0.10000D-05 Strict=F.
 There are   297 symmetry adapted cartesian basis functions of A   symmetry.
 There are   267 symmetry adapted basis functions of A   symmetry.
   267 basis functions,   389 primitive gaussians,   297 cartesian basis functions
    24 alpha electrons       23 beta electrons
       nuclear repulsion energy       238.0555886318 Hartrees.
 IExCor= 4336 DFT=T Ex+Corr=M062X ExCW=0 ScaHFX=  0.540000
 ScaDFX=  1.000000  1.000000  1.000000  1.000000 ScalE2=  1.000000  1.000000
 IRadAn=      5 IRanWt=     -1 IRanGd=            0 ICorTp=0 IEmpDi=  4
 NAtoms=   13 NActive=   13 NUniq=   13 SFac= 1.00D+00 NAtFMM=   60 NAOKFM=F Big=F
 Integral buffers will be    131072 words long.
 Raffenetti 2 integral format.
 Two-electron integral symmetry is turned on.
 Leave Link  301 at Mon Mar 11 00:05:21 2019, MaxMem=   671088640 cpu:               1.0 elap:               0.1
 (Enter /shared/centos7/gaussian/g16/l302.exe)
 NPDir=0 NMtPBC=     1 NCelOv=     1 NCel=       1 NClECP=     1 NCelD=      1
         NCelK=      1 NCelE2=     1 NClLst=     1 CellRange=     0.0.
 One-electron integrals computed using PRISM.
 One-electron integral symmetry used in STVInt
 NBasis=   267 RedAO= T EigKep=  3.56D-05  NBF=   267
 NBsUse=   267 1.00D-06 EigRej= -1.00D+00 NBFU=   267
 Precomputing XC quadrature grid using
 IXCGrd= 4 IRadAn=           5 IRanWt=          -1 IRanGd=           0 AccXCQ= 0.00D+00.
 Generated NRdTot=       0 NPtTot=           0 NUsed=           0 NTot=          32
 NSgBfM=   297   297   297   297   297 MxSgAt=    13 MxSgA2=    13.
 Leave Link  302 at Mon Mar 11 00:05:21 2019, MaxMem=   671088640 cpu:               6.0 elap:               0.3
 (Enter /shared/centos7/gaussian/g16/l303.exe)
 DipDrv:  MaxL=1.
 Leave Link  303 at Mon Mar 11 00:05:21 2019, MaxMem=   671088640 cpu:               0.5 elap:               0.0
 (Enter /shared/centos7/gaussian/g16/l401.exe)
 ExpMin= 4.38D-02 ExpMax= 8.59D+03 ExpMxC= 1.30D+03 IAcc=3 IRadAn=         5 AccDes= 0.00D+00
 Harris functional with IExCor= 1009 and IRadAn=       5 diagonalized for initial guess.
 HarFok:  IExCor= 1009 AccDes= 0.00D+00 IRadAn=         5 IDoV= 1 UseB2=F ITyADJ=14
 ICtDFT=  3500011 ScaDFX=  1.000000  1.000000  1.000000  1.000000
 FoFCou: FMM=F IPFlag=           0 FMFlag=      100000 FMFlg1=           0
         NFxFlg=           0 DoJE=T BraDBF=F KetDBF=T FulRan=T
         wScrn=  0.000000 ICntrl=       500 IOpCl=  0 I1Cent=   200000004 NGrid=           0
         NMat0=    1 NMatS0=      1 NMatT0=    0 NMatD0=    1 NMtDS0=    0 NMtDT0=    0
 Petite list used in FoFCou.
 Harris En= -306.874245156084    
 JPrj=0 DoOrth=F DoCkMO=F.
 Initial guess <Sx>= 0.0000 <Sy>= 0.0000 <Sz>= 0.5000 <S**2>= 0.7500 S= 0.5000
 Leave Link  401 at Mon Mar 11 00:05:22 2019, MaxMem=   671088640 cpu:              20.0 elap:               1.0
 (Enter /shared/centos7/gaussian/g16/l502.exe)
 Integral symmetry usage will be decided dynamically.
 UHF open shell SCF:
 Using DIIS extrapolation, IDIIS=  1040.
 NGot=   671088640 LenX=   670903575 LenY=   670814925
 Requested convergence on RMS density matrix=1.00D-08 within 128 cycles.
 Requested convergence on MAX density matrix=1.00D-06.
 Requested convergence on             energy=1.00D-06.
 No special actions if energy rises.
 Fock matrices will be formed incrementally for  20 cycles.

 Cycle   1  Pass 1  IDiag  1:
 FoFJK:  IHMeth= 1 ICntrl=       0 DoSepK=F KAlg= 0 I1Cent=           0 FoldK=F
 IRaf= 970000000 NMat=       1 IRICut=       1 DoRegI=T DoRafI=F ISym2E= 0 IDoP0=0 IntGTp=1.
 FoFCou: FMM=F IPFlag=           0 FMFlag=      100000 FMFlg1=           0
         NFxFlg=           0 DoJE=F BraDBF=F KetDBF=F FulRan=T
         wScrn=  0.000000 ICntrl=         0 IOpCl=  1 I1Cent=           0 NGrid=           0
         NMat0=    1 NMatS0=      1 NMatT0=    0 NMatD0=    1 NMtDS0=    0 NMtDT0=    0
 Symmetry not used in FoFCou.
 E= -306.814540197269    
 DIIS: error= 1.87D-02 at cycle   1 NSaved=   1.
 NSaved= 1 IEnMin= 1 EnMin= -306.814540197269     IErMin= 1 ErrMin= 1.87D-02
 ErrMax= 1.87D-02  0.00D+00 EMaxC= 1.00D-01 BMatC= 1.04D+00 BMatP= 1.04D+00
 IDIUse=3 WtCom= 8.13D-01 WtEn= 1.87D-01
 Coeff-Com:  0.100D+01
 Coeff-En:   0.100D+01
 Coeff:      0.100D+01
 Gap=     0.289 Goal=   None    Shift=    0.000
 Gap=     0.262 Goal=   None    Shift=    0.000
 GapD=    0.262 DampG=1.000 DampE=0.500 DampFc=0.5000 IDamp=-1.
 Damping current iteration by 5.00D-01
 RMSDP=2.56D-03 MaxDP=1.09D-01              OVMax= 1.64D-01

 Cycle   2  Pass 1  IDiag  1:
 RMSU=  1.26D-03    CP:  9.79D-01
 E= -306.904115530004     Delta-E=       -0.089575332736 Rises=F Damp=T
 DIIS: error= 6.03D-03 at cycle   2 NSaved=   2.
 NSaved= 2 IEnMin= 2 EnMin= -306.904115530004     IErMin= 2 ErrMin= 6.03D-03
 ErrMax= 6.03D-03  0.00D+00 EMaxC= 1.00D-01 BMatC= 9.56D-02 BMatP= 1.04D+00
 IDIUse=3 WtCom= 9.40D-01 WtEn= 6.03D-02
 Coeff-Com: -0.129D-01 0.101D+01
 Coeff-En:   0.000D+00 0.100D+01
 Coeff:     -0.121D-01 0.101D+01
 Gap=     0.255 Goal=   None    Shift=    0.000
 Gap=     0.347 Goal=   None    Shift=    0.000
 RMSDP=8.86D-04 MaxDP=3.07D-02 DE=-8.96D-02 OVMax= 1.14D-01

 Cycle   3  Pass 1  IDiag  1:
 RMSU=  8.75D-04    CP:  9.65D-01  1.01D+00
 E= -306.995016655793     Delta-E=       -0.090901125789 Rises=F Damp=F
 DIIS: error= 7.81D-03 at cycle   3 NSaved=   3.
 NSaved= 3 IEnMin= 3 EnMin= -306.995016655793     IErMin= 2 ErrMin= 6.03D-03
 ErrMax= 7.81D-03  0.00D+00 EMaxC= 1.00D-01 BMatC= 6.52D-02 BMatP= 9.56D-02
 IDIUse=3 WtCom= 9.22D-01 WtEn= 7.81D-02
 Coeff-Com: -0.869D-01 0.484D+00 0.603D+00
 Coeff-En:   0.000D+00 0.000D+00 0.100D+01
 Coeff:     -0.801D-01 0.446D+00 0.634D+00
 Gap=     0.266 Goal=   None    Shift=    0.000
 Gap=     0.325 Goal=   None    Shift=    0.000
 RMSDP=4.21D-04 MaxDP=1.51D-02 DE=-9.09D-02 OVMax= 5.14D-02

 Cycle   4  Pass 1  IDiag  1:
 RMSU=  3.65D-04    CP:  9.64D-01  1.13D+00  8.34D-01
 E= -307.004894501196     Delta-E=       -0.009877845403 Rises=F Damp=F
 DIIS: error= 2.49D-03 at cycle   4 NSaved=   4.
 NSaved= 4 IEnMin= 4 EnMin= -307.004894501196     IErMin= 4 ErrMin= 2.49D-03
 ErrMax= 2.49D-03  0.00D+00 EMaxC= 1.00D-01 BMatC= 1.21D-02 BMatP= 6.52D-02
 IDIUse=3 WtCom= 9.75D-01 WtEn= 2.49D-02
 Coeff-Com: -0.316D-01 0.775D-01 0.334D+00 0.620D+00
 Coeff-En:   0.000D+00 0.000D+00 0.137D+00 0.863D+00
 Coeff:     -0.308D-01 0.756D-01 0.329D+00 0.626D+00
 Gap=     0.265 Goal=   None    Shift=    0.000
 Gap=     0.327 Goal=   None    Shift=    0.000
 RMSDP=1.45D-04 MaxDP=5.06D-03 DE=-9.88D-03 OVMax= 1.34D-02

 Cycle   5  Pass 1  IDiag  1:
 RMSU=  8.28D-05    CP:  9.63D-01  1.10D+00  9.06D-01  7.39D-01
 E= -307.007267526783     Delta-E=       -0.002373025587 Rises=F Damp=F
 DIIS: error= 4.10D-04 at cycle   5 NSaved=   5.
 NSaved= 5 IEnMin= 5 EnMin= -307.007267526783     IErMin= 5 ErrMin= 4.10D-04
 ErrMax= 4.10D-04  0.00D+00 EMaxC= 1.00D-01 BMatC= 2.45D-04 BMatP= 1.21D-02
 IDIUse=3 WtCom= 9.96D-01 WtEn= 4.10D-03
 Coeff-Com: -0.332D-02-0.213D-02 0.597D-01 0.165D+00 0.781D+00
 Coeff-En:   0.000D+00 0.000D+00 0.000D+00 0.000D+00 0.100D+01
 Coeff:     -0.331D-02-0.212D-02 0.595D-01 0.164D+00 0.782D+00
 Gap=     0.265 Goal=   None    Shift=    0.000
 Gap=     0.329 Goal=   None    Shift=    0.000
 RMSDP=3.81D-05 MaxDP=2.36D-03 DE=-2.37D-03 OVMax= 7.32D-03

 Cycle   6  Pass 1  IDiag  1:
 RMSU=  3.29D-05    CP:  9.62D-01  1.10D+00  9.20D-01  7.65D-01  1.13D+00
 E= -307.007378082467     Delta-E=       -0.000110555684 Rises=F Damp=F
 DIIS: error= 2.44D-04 at cycle   6 NSaved=   6.
 NSaved= 6 IEnMin= 6 EnMin= -307.007378082467     IErMin= 6 ErrMin= 2.44D-04
 ErrMax= 2.44D-04  0.00D+00 EMaxC= 1.00D-01 BMatC= 8.69D-05 BMatP= 2.45D-04
 IDIUse=3 WtCom= 9.98D-01 WtEn= 2.44D-03
 Coeff-Com:  0.518D-02-0.170D-01-0.475D-01-0.837D-01 0.264D+00 0.879D+00
 Coeff-En:   0.000D+00 0.000D+00 0.000D+00 0.000D+00 0.000D+00 0.100D+01
 Coeff:      0.517D-02-0.169D-01-0.474D-01-0.835D-01 0.264D+00 0.879D+00
 Gap=     0.266 Goal=   None    Shift=    0.000
 Gap=     0.329 Goal=   None    Shift=    0.000
 RMSDP=2.68D-05 MaxDP=1.18D-03 DE=-1.11D-04 OVMax= 5.10D-03

 Cycle   7  Pass 1  IDiag  1:
 RMSU=  1.60D-05    CP:  9.62D-01  1.10D+00  9.27D-01  7.73D-01  1.35D+00
                    CP:  1.27D+00
 E= -307.007418083079     Delta-E=       -0.000040000612 Rises=F Damp=F
 DIIS: error= 9.94D-05 at cycle   7 NSaved=   7.
 NSaved= 7 IEnMin= 7 EnMin= -307.007418083079     IErMin= 7 ErrMin= 9.94D-05
 ErrMax= 9.94D-05  0.00D+00 EMaxC= 1.00D-01 BMatC= 1.47D-05 BMatP= 8.69D-05
 IDIUse=1 WtCom= 1.00D+00 WtEn= 0.00D+00
 Coeff-Com:  0.291D-02-0.559D-02-0.325D-01-0.792D-01-0.763D-01 0.334D+00
 Coeff-Com:  0.857D+00
 Coeff:      0.291D-02-0.559D-02-0.325D-01-0.792D-01-0.763D-01 0.334D+00
 Coeff:      0.857D+00
 Gap=     0.267 Goal=   None    Shift=    0.000
 Gap=     0.330 Goal=   None    Shift=    0.000
 RMSDP=1.38D-05 MaxDP=6.10D-04 DE=-4.00D-05 OVMax= 2.91D-03

 Cycle   8  Pass 1  IDiag  1:
 RMSU=  7.42D-06    CP:  9.62D-01  1.10D+00  9.28D-01  7.74D-01  1.46D+00
                    CP:  1.45D+00  1.25D+00
 E= -307.007426046309     Delta-E=       -0.000007963230 Rises=F Damp=F
 DIIS: error= 3.32D-05 at cycle   8 NSaved=   8.
 NSaved= 8 IEnMin= 8 EnMin= -307.007426046309     IErMin= 8 ErrMin= 3.32D-05
 ErrMax= 3.32D-05  0.00D+00 EMaxC= 1.00D-01 BMatC= 1.75D-06 BMatP= 1.47D-05
 IDIUse=1 WtCom= 1.00D+00 WtEn= 0.00D+00
 Coeff-Com:  0.256D-03 0.161D-03-0.466D-02-0.165D-01-0.556D-01 0.285D-02
 Coeff-Com:  0.293D+00 0.780D+00
 Coeff:      0.256D-03 0.161D-03-0.466D-02-0.165D-01-0.556D-01 0.285D-02
 Coeff:      0.293D+00 0.780D+00
 Gap=     0.267 Goal=   None    Shift=    0.000
 Gap=     0.330 Goal=   None    Shift=    0.000
 RMSDP=3.75D-06 MaxDP=2.38D-04 DE=-7.96D-06 OVMax= 4.35D-04

 Cycle   9  Pass 1  IDiag  1:
 RMSU=  2.10D-06    CP:  9.62D-01  1.10D+00  9.28D-01  7.72D-01  1.47D+00
                    CP:  1.50D+00  1.39D+00  1.06D+00
 E= -307.007426657934     Delta-E=       -0.000000611625 Rises=F Damp=F
 DIIS: error= 7.14D-06 at cycle   9 NSaved=   9.
 NSaved= 9 IEnMin= 9 EnMin= -307.007426657934     IErMin= 9 ErrMin= 7.14D-06
 ErrMax= 7.14D-06  0.00D+00 EMaxC= 1.00D-01 BMatC= 9.50D-08 BMatP= 1.75D-06
 IDIUse=1 WtCom= 1.00D+00 WtEn= 0.00D+00
 Coeff-Com: -0.366D-03 0.792D-03 0.331D-02 0.783D-02 0.155D-02-0.355D-01
 Coeff-Com: -0.662D-01 0.769D-01 0.101D+01
 Coeff:     -0.366D-03 0.792D-03 0.331D-02 0.783D-02 0.155D-02-0.355D-01
 Coeff:     -0.662D-01 0.769D-01 0.101D+01
 Gap=     0.267 Goal=   None    Shift=    0.000
 Gap=     0.330 Goal=   None    Shift=    0.000
 RMSDP=1.39D-06 MaxDP=5.07D-05 DE=-6.12D-07 OVMax= 1.85D-04

 Cycle  10  Pass 1  IDiag  1:
 RMSU=  7.61D-07    CP:  9.62D-01  1.10D+00  9.28D-01  7.72D-01  1.47D+00
                    CP:  1.50D+00  1.43D+00  1.15D+00  1.14D+00
 E= -307.007426715239     Delta-E=       -0.000000057304 Rises=F Damp=F
 DIIS: error= 3.51D-06 at cycle  10 NSaved=  10.
 NSaved=10 IEnMin=10 EnMin= -307.007426715239     IErMin=10 ErrMin= 3.51D-06
 ErrMax= 3.51D-06  0.00D+00 EMaxC= 1.00D-01 BMatC= 1.07D-08 BMatP= 9.50D-08
 IDIUse=1 WtCom= 1.00D+00 WtEn= 0.00D+00
 Coeff-Com: -0.484D-04 0.720D-04 0.461D-03 0.170D-02 0.333D-02-0.327D-02
 Coeff-Com: -0.230D-01-0.434D-01 0.894D-01 0.975D+00
 Coeff:     -0.484D-04 0.720D-04 0.461D-03 0.170D-02 0.333D-02-0.327D-02
 Coeff:     -0.230D-01-0.434D-01 0.894D-01 0.975D+00
 Gap=     0.267 Goal=   None    Shift=    0.000
 Gap=     0.330 Goal=   None    Shift=    0.000
 RMSDP=4.06D-07 MaxDP=1.67D-05 DE=-5.73D-08 OVMax= 7.21D-05

 Cycle  11  Pass 1  IDiag  1:
 RMSU=  2.56D-07    CP:  9.62D-01  1.10D+00  9.28D-01  7.72D-01  1.47D+00
                    CP:  1.50D+00  1.44D+00  1.17D+00  1.23D+00  1.16D+00
 E= -307.007426723493     Delta-E=       -0.000000008255 Rises=F Damp=F
 DIIS: error= 1.83D-06 at cycle  11 NSaved=  11.
 NSaved=11 IEnMin=11 EnMin= -307.007426723493     IErMin=11 ErrMin= 1.83D-06
 ErrMax= 1.83D-06  0.00D+00 EMaxC= 1.00D-01 BMatC= 2.65D-09 BMatP= 1.07D-08
 IDIUse=1 WtCom= 1.00D+00 WtEn= 0.00D+00
 Coeff-Com:  0.520D-04-0.118D-03-0.495D-03-0.102D-02 0.357D-03 0.501D-02
 Coeff-Com:  0.834D-02-0.176D-01-0.165D+00 0.126D+00 0.104D+01
 Coeff:      0.520D-04-0.118D-03-0.495D-03-0.102D-02 0.357D-03 0.501D-02
 Coeff:      0.834D-02-0.176D-01-0.165D+00 0.126D+00 0.104D+01
 Gap=     0.267 Goal=   None    Shift=    0.000
 Gap=     0.330 Goal=   None    Shift=    0.000
 RMSDP=2.06D-07 MaxDP=9.96D-06 DE=-8.25D-09 OVMax= 4.23D-05

 Cycle  12  Pass 1  IDiag  1:
 RMSU=  1.06D-07    CP:  9.62D-01  1.10D+00  9.28D-01  7.72D-01  1.47D+00
                    CP:  1.50D+00  1.44D+00  1.17D+00  1.26D+00  1.34D+00
                    CP:  1.35D+00
 E= -307.007426726064     Delta-E=       -0.000000002571 Rises=F Damp=F
 DIIS: error= 8.93D-07 at cycle  12 NSaved=  12.
 NSaved=12 IEnMin=12 EnMin= -307.007426726064     IErMin=12 ErrMin= 8.93D-07
 ErrMax= 8.93D-07  0.00D+00 EMaxC= 1.00D-01 BMatC= 5.86D-10 BMatP= 2.65D-09
 IDIUse=1 WtCom= 1.00D+00 WtEn= 0.00D+00
 Coeff-Com:  0.195D-04-0.358D-04-0.201D-03-0.562D-03-0.569D-03 0.153D-02
 Coeff-Com:  0.647D-02 0.606D-02-0.486D-01-0.167D+00 0.169D+00 0.103D+01
 Coeff:      0.195D-04-0.358D-04-0.201D-03-0.562D-03-0.569D-03 0.153D-02
 Coeff:      0.647D-02 0.606D-02-0.486D-01-0.167D+00 0.169D+00 0.103D+01
 Gap=     0.267 Goal=   None    Shift=    0.000
 Gap=     0.330 Goal=   None    Shift=    0.000
 RMSDP=1.02D-07 MaxDP=5.60D-06 DE=-2.57D-09 OVMax= 2.24D-05

 Cycle  13  Pass 1  IDiag  1:
 RMSU=  5.56D-08    CP:  9.62D-01  1.10D+00  9.28D-01  7.72D-01  1.47D+00
                    CP:  1.50D+00  1.44D+00  1.17D+00  1.26D+00  1.40D+00
                    CP:  1.58D+00  1.38D+00
 E= -307.007426726689     Delta-E=       -0.000000000624 Rises=F Damp=F
 DIIS: error= 4.15D-07 at cycle  13 NSaved=  13.
 NSaved=13 IEnMin=13 EnMin= -307.007426726689     IErMin=13 ErrMin= 4.15D-07
 ErrMax= 4.15D-07  0.00D+00 EMaxC= 1.00D-01 BMatC= 1.34D-10 BMatP= 5.86D-10
 IDIUse=1 WtCom= 1.00D+00 WtEn= 0.00D+00
 Coeff-Com: -0.870D-05 0.200D-04 0.819D-04 0.132D-03-0.156D-03-0.870D-03
 Coeff-Com: -0.674D-03 0.524D-02 0.285D-01-0.707D-01-0.220D+00 0.258D+00
 Coeff-Com:  0.100D+01
 Coeff:     -0.870D-05 0.200D-04 0.819D-04 0.132D-03-0.156D-03-0.870D-03
 Coeff:     -0.674D-03 0.524D-02 0.285D-01-0.707D-01-0.220D+00 0.258D+00
 Coeff:      0.100D+01
 Gap=     0.267 Goal=   None    Shift=    0.000
 Gap=     0.330 Goal=   None    Shift=    0.000
 RMSDP=5.55D-08 MaxDP=2.95D-06 DE=-6.24D-10 OVMax= 1.00D-05

 Cycle  14  Pass 1  IDiag  1:
 RMSU=  2.32D-08    CP:  9.62D-01  1.10D+00  9.28D-01  7.72D-01  1.47D+00
                    CP:  1.50D+00  1.44D+00  1.17D+00  1.27D+00  1.40D+00
                    CP:  1.68D+00  1.72D+00  1.32D+00
 E= -307.007426726826     Delta-E=       -0.000000000138 Rises=F Damp=F
 DIIS: error= 1.24D-07 at cycle  14 NSaved=  14.
 NSaved=14 IEnMin=14 EnMin= -307.007426726826     IErMin=14 ErrMin= 1.24D-07
 ErrMax= 1.24D-07  0.00D+00 EMaxC= 1.00D-01 BMatC= 1.68D-11 BMatP= 1.34D-10
 IDIUse=1 WtCom= 1.00D+00 WtEn= 0.00D+00
 Coeff-Com: -0.295D-05 0.598D-05 0.354D-04 0.837D-04 0.716D-04-0.295D-03
 Coeff-Com: -0.920D-03-0.667D-03 0.992D-02 0.212D-01-0.321D-01-0.161D+00
 Coeff-Com:  0.734D-01 0.109D+01
 Coeff:     -0.295D-05 0.598D-05 0.354D-04 0.837D-04 0.716D-04-0.295D-03
 Coeff:     -0.920D-03-0.667D-03 0.992D-02 0.212D-01-0.321D-01-0.161D+00
 Coeff:      0.734D-01 0.109D+01
 Gap=     0.267 Goal=   None    Shift=    0.000
 Gap=     0.330 Goal=   None    Shift=    0.000
 RMSDP=2.08D-08 MaxDP=9.76D-07 DE=-1.38D-10 OVMax= 3.49D-06

 Cycle  15  Pass 1  IDiag  1:
 RMSU=  1.01D-08    CP:  9.62D-01  1.10D+00  9.28D-01  7.72D-01  1.47D+00
                    CP:  1.50D+00  1.44D+00  1.17D+00  1.27D+00  1.40D+00
                    CP:  1.69D+00  1.81D+00  1.53D+00  1.29D+00
 E= -307.007426726837     Delta-E=       -0.000000000010 Rises=F Damp=F
 DIIS: error= 5.02D-08 at cycle  15 NSaved=  15.
 NSaved=15 IEnMin=15 EnMin= -307.007426726837     IErMin=15 ErrMin= 5.02D-08
 ErrMax= 5.02D-08  0.00D+00 EMaxC= 1.00D-01 BMatC= 2.48D-12 BMatP= 1.68D-11
 IDIUse=1 WtCom= 1.00D+00 WtEn= 0.00D+00
 Coeff-Com:  0.111D-05-0.252D-05-0.647D-05-0.126D-04 0.254D-04 0.680D-04
 Coeff-Com:  0.732D-04-0.709D-03-0.297D-02 0.877D-02 0.291D-01-0.494D-01
 Coeff-Com: -0.108D+00 0.383D-01 0.108D+01
 Coeff:      0.111D-05-0.252D-05-0.647D-05-0.126D-04 0.254D-04 0.680D-04
 Coeff:      0.732D-04-0.709D-03-0.297D-02 0.877D-02 0.291D-01-0.494D-01
 Coeff:     -0.108D+00 0.383D-01 0.108D+01
 Gap=     0.267 Goal=   None    Shift=    0.000
 Gap=     0.330 Goal=   None    Shift=    0.000
 RMSDP=8.08D-09 MaxDP=3.00D-07 DE=-1.05D-11 OVMax= 1.53D-06

 SCF Done:  E(UM062X) =  -307.007426727     A.U. after   15 cycles
            NFock= 15  Conv=0.81D-08     -V/T= 2.0035
 <Sx>= 0.0000 <Sy>= 0.0000 <Sz>= 0.5000 <S**2>= 0.7549 S= 0.5024
 <L.S>= 0.000000000000E+00
 KE= 3.059315911187D+02 PE=-1.194215161855D+03 EE= 3.432205553779D+02
 Annihilation of the first spin contaminant:
 S**2 before annihilation     0.7549,   after     0.7500
 Leave Link  502 at Mon Mar 11 00:06:11 2019, MaxMem=   671088640 cpu:             973.3 elap:              48.7
 (Enter /shared/centos7/gaussian/g16/l801.exe)
 DoSCS=F DFT=T ScalE2(SS,OS)=  1.000000  1.000000
 Range of M.O.s used for correlation:     1   267
 NBasis=   267 NAE=    24 NBE=    23 NFC=     0 NFV=     0
 NROrb=    267 NOA=    24 NOB=    23 NVA=   243 NVB=   244

 **** Warning!!: The largest alpha MO coefficient is  0.43310697D+02


 **** Warning!!: The largest beta MO coefficient is  0.37111383D+02

 Leave Link  801 at Mon Mar 11 00:06:11 2019, MaxMem=   671088640 cpu:               0.4 elap:               0.0
 (Enter /shared/centos7/gaussian/g16/l1101.exe)
 Using compressed storage, NAtomX=    13.
 Will process     14 centers per pass.
 Leave Link 1101 at Mon Mar 11 00:06:11 2019, MaxMem=   671088640 cpu:               6.6 elap:               0.4
 (Enter /shared/centos7/gaussian/g16/l1102.exe)
 Symmetrizing basis deriv contribution to polar:
 IMax=3 JMax=2 DiffMx= 0.00D+00
 Leave Link 1102 at Mon Mar 11 00:06:11 2019, MaxMem=   671088640 cpu:               0.6 elap:               0.1
 (Enter /shared/centos7/gaussian/g16/l1110.exe)
 Forming Gx(P) for the SCF density, NAtomX=    13.
 Integral derivatives from FoFJK, PRISM(SPDF).
 Do as many integral derivatives as possible in FoFJK.
 G2DrvN: MDV=     671087568.
 G2DrvN: will do    14 centers at a time, making    1 passes.
 Calling FoFCou, ICntrl=  3107 FMM=F I1Cent=   0 AccDes= 0.00D+00.
 FoFJK:  IHMeth= 1 ICntrl=    3107 DoSepK=F KAlg= 0 I1Cent=           0 FoldK=F
 IRaf=         0 NMat=       1 IRICut=       1 DoRegI=T DoRafI=F ISym2E= 0 IDoP0=0 IntGTp=1.
 FoFCou: FMM=F IPFlag=           0 FMFlag=      100000 FMFlg1=           0
         NFxFlg=           0 DoJE=F BraDBF=F KetDBF=F FulRan=T
         wScrn=  0.000000 ICntrl=      3107 IOpCl=  1 I1Cent=           0 NGrid=           0
         NMat0=    1 NMatS0=      1 NMatT0=    0 NMatD0=    1 NMtDS0=    0 NMtDT0=    0
 Symmetry not used in FoFCou.
 End of G2Drv F.D. properties file   721 does not exist.
 End of G2Drv F.D. properties file   722 does not exist.
 End of G2Drv F.D. properties file   788 does not exist.
 Leave Link 1110 at Mon Mar 11 00:07:31 2019, MaxMem=   671088640 cpu:            1595.3 elap:              79.8
 (Enter /shared/centos7/gaussian/g16/l1002.exe)
 Minotr:  UHF open shell wavefunction.
          IDoAtm=1111111111111
          Direct CPHF calculation.
          Differentiating once with respect to nuclear coordinates.
          Requested convergence is 1.0D-08 RMS, and 1.0D-07 maximum.
          Secondary convergence is 1.0D-12 RMS, and 1.0D-12 maximum.
          NewPWx=T KeepS1=F KeepF1=F KeepIn=T MapXYZ=F SortEE=F KeepMc=T.
         3966 words used for storage of precomputed grid.
 Two-electron integrals replicated using symmetry.
          MDV=     671088640 using IRadAn=       1.
          Solving linear equations simultaneously, MaxMat=     380.
 FoF2E skips out because all densities are zero.
 CalDSu exits because no D1Ps are significant.
 FoFJK:  IHMeth= 1 ICntrl=       0 DoSepK=F KAlg= 0 I1Cent=           0 FoldK=F
 IRaf= 960000000 NMat=      39 IRICut=      97 DoRegI=T DoRafI=T ISym2E= 2 IDoP0=3 IntGTp=3.
 FoFCou: FMM=F IPFlag=           0 FMFlag=      100000 FMFlg1=           0
         NFxFlg=           0 DoJE=F BraDBF=F KetDBF=F FulRan=T
         wScrn=  0.000000 ICntrl=         0 IOpCl=  1 I1Cent=           0 NGrid=           0
         NMat0=   39 NMatS0=     39 NMatT0=    0 NMatD0=   39 NMtDS0=    0 NMtDT0=    0
 Integrals replicated using symmetry in FoFCou.
 Raff kept on since  93.95% of shell-pairs survive, threshold=   0.20 IRatSp=94.
          There are    42 degrees of freedom in the 1st order CPHF.  IDoFFX=6 NUNeed=     0.
     36 vectors produced by pass  0 Test12= 2.72D-14 2.38D-09 XBig12= 1.73D-01 8.56D-02.
 AX will form    36 AO Fock derivatives at one time.
     36 vectors produced by pass  1 Test12= 2.72D-14 2.38D-09 XBig12= 1.87D-02 4.35D-02.
     36 vectors produced by pass  2 Test12= 2.72D-14 2.38D-09 XBig12= 8.08D-04 7.36D-03.
     36 vectors produced by pass  3 Test12= 2.72D-14 2.38D-09 XBig12= 1.12D-05 4.59D-04.
     36 vectors produced by pass  4 Test12= 2.72D-14 2.38D-09 XBig12= 1.67D-07 5.66D-05.
     36 vectors produced by pass  5 Test12= 2.72D-14 2.38D-09 XBig12= 2.83D-09 6.80D-06.
     34 vectors produced by pass  6 Test12= 2.72D-14 2.38D-09 XBig12= 3.22D-11 5.35D-07.
     17 vectors produced by pass  7 Test12= 2.72D-14 2.38D-09 XBig12= 2.16D-13 3.83D-08.
      2 vectors produced by pass  8 Test12= 2.72D-14 2.38D-09 XBig12= 1.19D-15 2.45D-09.
 InvSVY:  IOpt=1 It=  1 EMax= 1.55D-15
 Solved reduced A of dimension   269 with    36 vectors.
 End of Minotr F.D. properties file   721 does not exist.
 End of Minotr F.D. properties file   722 does not exist.
 End of Minotr F.D. properties file   788 does not exist.
 Leave Link 1002 at Mon Mar 11 00:09:35 2019, MaxMem=   671088640 cpu:            2469.6 elap:             123.5
 (Enter /shared/centos7/gaussian/g16/l601.exe)
 Copying SCF densities to generalized density rwf, IOpCl= 1 IROHF=0.

 **********************************************************************

            Population analysis using the SCF density.

 **********************************************************************

 Orbital symmetries:
 Alpha Orbitals:
       Occupied  (A) (A) (A) (A) (A) (A) (A) (A) (A) (A) (A) (A)
                 (A) (A) (A) (A) (A) (A) (A) (A) (A) (A) (A) (A)
       Virtual   (A) (A) (A) (A) (A) (A) (A) (A) (A) (A) (A) (A)
                 (A) (A) (A) (A) (A) (A) (A) (A) (A) (A) (A) (A)
                 (A) (A) (A) (A) (A) (A) (A) (A) (A) (A) (A) (A)
                 (A) (A) (A) (A) (A) (A) (A) (A) (A) (A) (A) (A)
                 (A) (A) (A) (A) (A) (A) (A) (A) (A) (A) (A) (A)
                 (A) (A) (A) (A) (A) (A) (A) (A) (A) (A) (A) (A)
                 (A) (A) (A) (A) (A) (A) (A) (A) (A) (A) (A) (A)
                 (A) (A) (A) (A) (A) (A) (A) (A) (A) (A) (A) (A)
                 (A) (A) (A) (A) (A) (A) (A) (A) (A) (A) (A) (A)
                 (A) (A) (A) (A) (A) (A) (A) (A) (A) (A) (A) (A)
                 (A) (A) (A) (A) (A) (A) (A) (A) (A) (A) (A) (A)
                 (A) (A) (A) (A) (A) (A) (A) (A) (A) (A) (A) (A)
                 (A) (A) (A) (A) (A) (A) (A) (A) (A) (A) (A) (A)
                 (A) (A) (A) (A) (A) (A) (A) (A) (A) (A) (A) (A)
                 (A) (A) (A) (A) (A) (A) (A) (A) (A) (A) (A) (A)
                 (A) (A) (A) (A) (A) (A) (A) (A) (A) (A) (A) (A)
                 (A) (A) (A) (A) (A) (A) (A) (A) (A) (A) (A) (A)
                 (A) (A) (A) (A) (A) (A) (A) (A) (A) (A) (A) (A)
                 (A) (A) (A) (A) (A) (A) (A) (A) (A) (A) (A) (A)
                 (A) (A) (A) (A) (A) (A) (A) (A) (A) (A) (A) (A)
                 (A) (A) (A)
 Beta  Orbitals:
       Occupied  (A) (A) (A) (A) (A) (A) (A) (A) (A) (A) (A) (A)
                 (A) (A) (A) (A) (A) (A) (A) (A) (A) (A) (A)
       Virtual   (A) (A) (A) (A) (A) (A) (A) (A) (A) (A) (A) (A)
                 (A) (A) (A) (A) (A) (A) (A) (A) (A) (A) (A) (A)
                 (A) (A) (A) (A) (A) (A) (A) (A) (A) (A) (A) (A)
                 (A) (A) (A) (A) (A) (A) (A) (A) (A) (A) (A) (A)
                 (A) (A) (A) (A) (A) (A) (A) (A) (A) (A) (A) (A)
                 (A) (A) (A) (A) (A) (A) (A) (A) (A) (A) (A) (A)
                 (A) (A) (A) (A) (A) (A) (A) (A) (A) (A) (A) (A)
                 (A) (A) (A) (A) (A) (A) (A) (A) (A) (A) (A) (A)
                 (A) (A) (A) (A) (A) (A) (A) (A) (A) (A) (A) (A)
                 (A) (A) (A) (A) (A) (A) (A) (A) (A) (A) (A) (A)
                 (A) (A) (A) (A) (A) (A) (A) (A) (A) (A) (A) (A)
                 (A) (A) (A) (A) (A) (A) (A) (A) (A) (A) (A) (A)
                 (A) (A) (A) (A) (A) (A) (A) (A) (A) (A) (A) (A)
                 (A) (A) (A) (A) (A) (A) (A) (A) (A) (A) (A) (A)
                 (A) (A) (A) (A) (A) (A) (A) (A) (A) (A) (A) (A)
                 (A) (A) (A) (A) (A) (A) (A) (A) (A) (A) (A) (A)
                 (A) (A) (A) (A) (A) (A) (A) (A) (A) (A) (A) (A)
                 (A) (A) (A) (A) (A) (A) (A) (A) (A) (A) (A) (A)
                 (A) (A) (A) (A) (A) (A) (A) (A) (A) (A) (A) (A)
                 (A) (A) (A) (A) (A) (A) (A) (A) (A) (A) (A) (A)
                 (A) (A) (A) (A)
 The electronic state is 2-A.
 Alpha  occ. eigenvalues --  -19.69276 -19.62379 -10.67821 -10.59698 -10.55721
 Alpha  occ. eigenvalues --  -10.54230  -1.25817  -1.16253  -0.90597  -0.82011
 Alpha  occ. eigenvalues --   -0.74107  -0.66001  -0.60100  -0.58356  -0.56953
 Alpha  occ. eigenvalues --   -0.52685  -0.51461  -0.47571  -0.45461  -0.44472
 Alpha  occ. eigenvalues --   -0.42919  -0.42629  -0.36353  -0.25600
 Alpha virt. eigenvalues --    0.01065   0.02735   0.03206   0.04086   0.04626
 Alpha virt. eigenvalues --    0.05213   0.06287   0.07335   0.08034   0.08201
 Alpha virt. eigenvalues --    0.09939   0.10682   0.11341   0.12764   0.12927
 Alpha virt. eigenvalues --    0.15209   0.16100   0.19019   0.19300   0.20619
 Alpha virt. eigenvalues --    0.21683   0.22938   0.23193   0.24914   0.26142
 Alpha virt. eigenvalues --    0.27083   0.27404   0.29028   0.30257   0.30736
 Alpha virt. eigenvalues --    0.31840   0.33974   0.34111   0.36814   0.37634
 Alpha virt. eigenvalues --    0.40536   0.42566   0.44312   0.46526   0.47135
 Alpha virt. eigenvalues --    0.49162   0.52602   0.53334   0.54420   0.55061
 Alpha virt. eigenvalues --    0.56031   0.56733   0.58476   0.59409   0.61592
 Alpha virt. eigenvalues --    0.62285   0.63311   0.65402   0.67008   0.68123
 Alpha virt. eigenvalues --    0.69320   0.70477   0.73048   0.74732   0.77695
 Alpha virt. eigenvalues --    0.82040   0.83142   0.84823   0.85694   0.88584
 Alpha virt. eigenvalues --    0.90405   0.92340   0.93938   0.95201   0.97086
 Alpha virt. eigenvalues --    1.01766   1.04850   1.06592   1.10651   1.11814
 Alpha virt. eigenvalues --    1.12706   1.13116   1.15283   1.15979   1.16967
 Alpha virt. eigenvalues --    1.19074   1.20452   1.21801   1.23476   1.24928
 Alpha virt. eigenvalues --    1.27091   1.27945   1.28978   1.31198   1.33418
 Alpha virt. eigenvalues --    1.34035   1.36898   1.38675   1.41529   1.42754
 Alpha virt. eigenvalues --    1.44808   1.46753   1.48619   1.50316   1.51715
 Alpha virt. eigenvalues --    1.54623   1.57520   1.60602   1.62728   1.64067
 Alpha virt. eigenvalues --    1.66695   1.67945   1.70780   1.74013   1.82190
 Alpha virt. eigenvalues --    1.84802   1.92616   2.04345   2.12419   2.15274
 Alpha virt. eigenvalues --    2.30407   2.37433   2.44122   2.47673   2.49554
 Alpha virt. eigenvalues --    2.51727   2.53595   2.60374   2.61209   2.66236
 Alpha virt. eigenvalues --    2.70045   2.74142   2.77381   2.80652   2.83483
 Alpha virt. eigenvalues --    2.84429   2.88049   2.91701   2.94946   2.97948
 Alpha virt. eigenvalues --    2.98637   2.99080   3.01851   3.03621   3.05589
 Alpha virt. eigenvalues --    3.07313   3.09851   3.12988   3.14550   3.16356
 Alpha virt. eigenvalues --    3.19644   3.22703   3.23566   3.26934   3.28840
 Alpha virt. eigenvalues --    3.29587   3.33197   3.33791   3.35212   3.38165
 Alpha virt. eigenvalues --    3.40147   3.45481   3.46689   3.47232   3.49004
 Alpha virt. eigenvalues --    3.53155   3.58094   3.59919   3.60708   3.64066
 Alpha virt. eigenvalues --    3.67284   3.68933   3.76743   3.76954   3.82649
 Alpha virt. eigenvalues --    3.83098   3.84325   3.87644   3.88794   3.93555
 Alpha virt. eigenvalues --    3.96993   3.97407   4.00058   4.03305   4.06794
 Alpha virt. eigenvalues --    4.09777   4.13110   4.15876   4.18704   4.21699
 Alpha virt. eigenvalues --    4.23641   4.25525   4.26975   4.29519   4.35077
 Alpha virt. eigenvalues --    4.35459   4.47495   4.49473   4.49840   4.53814
 Alpha virt. eigenvalues --    4.55985   4.58734   4.63175   4.70195   4.90687
 Alpha virt. eigenvalues --    5.07153   5.07806   5.13710   5.18181   5.21091
 Alpha virt. eigenvalues --    5.22185   5.24212   5.27852   5.37817   5.42602
 Alpha virt. eigenvalues --    5.45715   5.48302   5.50860   5.54320   5.56885
 Alpha virt. eigenvalues --    5.63235   5.65056   5.70100   5.74082   5.80598
 Alpha virt. eigenvalues --    5.96208   6.14059   6.40145   6.50749   6.71595
 Alpha virt. eigenvalues --    6.81826   6.92757   7.04525   7.06641   7.15760
 Alpha virt. eigenvalues --    7.17930   7.25870   7.31211   7.51826   7.65868
 Alpha virt. eigenvalues --    7.76172   7.82957  24.32349  24.44050  24.45617
 Alpha virt. eigenvalues --   24.81838  50.17081  50.30116
  Beta  occ. eigenvalues --  -19.69117 -19.62324 -10.67810 -10.58971 -10.55724
  Beta  occ. eigenvalues --  -10.54225  -1.25177  -1.15863  -0.90307  -0.80227
  Beta  occ. eigenvalues --   -0.73473  -0.64463  -0.59589  -0.57881  -0.55429
  Beta  occ. eigenvalues --   -0.52288  -0.50971  -0.46932  -0.44792  -0.44104
  Beta  occ. eigenvalues --   -0.42857  -0.41498  -0.36219
  Beta virt. eigenvalues --   -0.03221   0.01074   0.02471   0.03294   0.04124
  Beta virt. eigenvalues --    0.05104   0.05455   0.06294   0.07891   0.08248
  Beta virt. eigenvalues --    0.08516   0.09365   0.10704   0.12179   0.12664
  Beta virt. eigenvalues --    0.13011   0.15185   0.15503   0.19275   0.19916
  Beta virt. eigenvalues --    0.20458   0.21584   0.23303   0.23719   0.24803
  Beta virt. eigenvalues --    0.26505   0.27362   0.27446   0.28861   0.29811
  Beta virt. eigenvalues --    0.31272   0.31843   0.33932   0.34258   0.36545
  Beta virt. eigenvalues --    0.37681   0.40499   0.42513   0.44315   0.46817
  Beta virt. eigenvalues --    0.47419   0.49748   0.52704   0.53918   0.54321
  Beta virt. eigenvalues --    0.55324   0.56201   0.56930   0.59048   0.60436
  Beta virt. eigenvalues --    0.61842   0.62674   0.63673   0.65478   0.67685
  Beta virt. eigenvalues --    0.68171   0.69290   0.70485   0.73178   0.74547
  Beta virt. eigenvalues --    0.77779   0.81383   0.83136   0.84920   0.85557
  Beta virt. eigenvalues --    0.88614   0.90523   0.92646   0.93863   0.94685
  Beta virt. eigenvalues --    0.96647   1.01323   1.04885   1.06390   1.10664
  Beta virt. eigenvalues --    1.11758   1.12657   1.13147   1.15322   1.15913
  Beta virt. eigenvalues --    1.17016   1.19116   1.20406   1.21701   1.23664
  Beta virt. eigenvalues --    1.24985   1.27158   1.28141   1.29129   1.31266
  Beta virt. eigenvalues --    1.33534   1.34186   1.36981   1.38870   1.42173
  Beta virt. eigenvalues --    1.42861   1.45095   1.46763   1.49622   1.50503
  Beta virt. eigenvalues --    1.51862   1.54649   1.57818   1.60597   1.62888
  Beta virt. eigenvalues --    1.64091   1.67461   1.68120   1.71224   1.74097
  Beta virt. eigenvalues --    1.82835   1.85174   1.92815   2.04489   2.12670
  Beta virt. eigenvalues --    2.15605   2.31163   2.38501   2.44371   2.47811
  Beta virt. eigenvalues --    2.49916   2.52262   2.53776   2.60524   2.62650
  Beta virt. eigenvalues --    2.66678   2.70489   2.74947   2.79125   2.83790
  Beta virt. eigenvalues --    2.84516   2.85383   2.89358   2.95256   2.96696
  Beta virt. eigenvalues --    2.98510   2.99898   3.02470   3.03957   3.05458
  Beta virt. eigenvalues --    3.07676   3.10380   3.12809   3.13548   3.16544
  Beta virt. eigenvalues --    3.18349   3.21837   3.25081   3.26579   3.29917
  Beta virt. eigenvalues --    3.31034   3.31672   3.33388   3.35715   3.37759
  Beta virt. eigenvalues --    3.39888   3.42064   3.46026   3.48387   3.49197
  Beta virt. eigenvalues --    3.50857   3.54881   3.58828   3.60391   3.62029
  Beta virt. eigenvalues --    3.65834   3.68134   3.69921   3.76931   3.78704
  Beta virt. eigenvalues --    3.83119   3.84562   3.85832   3.88533   3.91707
  Beta virt. eigenvalues --    3.94343   3.97109   3.98218   4.00322   4.04409
  Beta virt. eigenvalues --    4.07401   4.09978   4.18425   4.20398   4.21480
  Beta virt. eigenvalues --    4.22013   4.23746   4.26225   4.27576   4.30358
  Beta virt. eigenvalues --    4.35293   4.37085   4.47558   4.49506   4.49941
  Beta virt. eigenvalues --    4.53934   4.56061   4.58811   4.64952   4.71613
  Beta virt. eigenvalues --    4.91750   5.07513   5.08533   5.14355   5.20424
  Beta virt. eigenvalues --    5.21378   5.22259   5.25292   5.31635   5.37873
  Beta virt. eigenvalues --    5.44224   5.46513   5.51203   5.53818   5.56623
  Beta virt. eigenvalues --    5.57460   5.63387   5.65456   5.71295   5.74908
  Beta virt. eigenvalues --    5.81583   5.97059   6.15138   6.40485   6.51150
  Beta virt. eigenvalues --    6.72200   6.82335   6.93240   7.04915   7.06838
  Beta virt. eigenvalues --    7.16263   7.18329   7.26034   7.31700   7.52027
  Beta virt. eigenvalues --    7.66076   7.76113   7.83204  24.32358  24.44112
  Beta virt. eigenvalues --   24.47054  24.81939  50.16940  50.30037
          Condensed to atoms (all electrons):
               1          2          3          4          5          6
     1  O    8.163005  -0.100015  -0.092614  -0.018279   0.160597   0.061632
     2  O   -0.100015   8.127612   0.005806  -0.024662   0.397911  -0.018541
     3  C   -0.092614   0.005806   5.753255   0.056911  -0.079397  -0.093637
     4  C   -0.018279  -0.024662   0.056911   5.289572  -0.106842   0.004244
     5  C    0.160597   0.397911  -0.079397  -0.106842   5.537605  -0.091182
     6  C    0.061632  -0.018541  -0.093637   0.004244  -0.091182   5.527128
     7  H   -0.004939   0.003509   0.442301  -0.044310  -0.053271   0.002162
     8  H    0.008190  -0.005968   0.474226  -0.010376  -0.086410  -0.001087
     9  H   -0.000342  -0.001011  -0.064514   0.408865   0.041165  -0.000105
    10  H   -0.000260   0.001398  -0.008056   0.420865  -0.032284   0.001285
    11  H   -0.000569   0.001513  -0.026773   0.413225  -0.013797   0.000730
    12  H   -0.036656  -0.002359  -0.003820  -0.000209  -0.003766   0.432594
    13  H   -0.050745   0.001666   0.005322   0.000184   0.006115   0.433171
               7          8          9         10         11         12
     1  O   -0.004939   0.008190  -0.000342  -0.000260  -0.000569  -0.036656
     2  O    0.003509  -0.005968  -0.001011   0.001398   0.001513  -0.002359
     3  C    0.442301   0.474226  -0.064514  -0.008056  -0.026773  -0.003820
     4  C   -0.044310  -0.010376   0.408865   0.420865   0.413225  -0.000209
     5  C   -0.053271  -0.086410   0.041165  -0.032284  -0.013797  -0.003766
     6  C    0.002162  -0.001087  -0.000105   0.001285   0.000730   0.432594
     7  H    0.509468  -0.026594  -0.003494  -0.005973   0.005307  -0.000030
     8  H   -0.026594   0.483533  -0.005024   0.004123  -0.004935   0.000031
     9  H   -0.003494  -0.005024   0.534721  -0.025517  -0.024466   0.000003
    10  H   -0.005973   0.004123  -0.025517   0.522496  -0.031591  -0.000026
    11  H    0.005307  -0.004935  -0.024466  -0.031591   0.529112  -0.000008
    12  H   -0.000030   0.000031   0.000003  -0.000026  -0.000008   0.433541
    13  H   -0.000024   0.000008  -0.000001   0.000018   0.000003  -0.024491
              13
     1  O   -0.050745
     2  O    0.001666
     3  C    0.005322
     4  C    0.000184
     5  C    0.006115
     6  C    0.433171
     7  H   -0.000024
     8  H    0.000008
     9  H   -0.000001
    10  H    0.000018
    11  H    0.000003
    12  H   -0.024491
    13  H    0.456733
          Atomic-Atomic Spin Densities.
               1          2          3          4          5          6
     1  O    0.120112  -0.007003  -0.002919   0.002672   0.036732  -0.173159
     2  O   -0.007003   0.036515   0.000128  -0.000343  -0.008815   0.016221
     3  C   -0.002919   0.000128   0.001831  -0.006530   0.004191  -0.004720
     4  C    0.002672  -0.000343  -0.006530   0.018066  -0.008774  -0.000970
     5  C    0.036732  -0.008815   0.004191  -0.008774   0.036830  -0.025489
     6  C   -0.173159   0.016221  -0.004720  -0.000970  -0.025489   1.217480
     7  H   -0.000266   0.000240   0.001953  -0.000519  -0.002081   0.000573
     8  H   -0.000106   0.000131  -0.000899   0.001102  -0.000337  -0.000084
     9  H    0.000208  -0.000038  -0.002224   0.001208   0.000844  -0.000020
    10  H   -0.000724   0.000100  -0.000184   0.000911  -0.000940   0.000580
    11  H   -0.000127   0.000059   0.000815  -0.000891   0.000030  -0.000013
    12  H   -0.000835   0.002530  -0.000371   0.000015  -0.000700  -0.002126
    13  H    0.002189  -0.000137   0.001683  -0.000050   0.000818  -0.003128
               7          8          9         10         11         12
     1  O   -0.000266  -0.000106   0.000208  -0.000724  -0.000127  -0.000835
     2  O    0.000240   0.000131  -0.000038   0.000100   0.000059   0.002530
     3  C    0.001953  -0.000899  -0.002224  -0.000184   0.000815  -0.000371
     4  C   -0.000519   0.001102   0.001208   0.000911  -0.000891   0.000015
     5  C   -0.002081  -0.000337   0.000844  -0.000940   0.000030  -0.000700
     6  C    0.000573  -0.000084  -0.000020   0.000580  -0.000013  -0.002126
     7  H    0.000847   0.000141   0.000186  -0.000062  -0.000028  -0.000018
     8  H    0.000141  -0.000209   0.000047  -0.000007  -0.000036   0.000002
     9  H    0.000186   0.000047   0.000440  -0.000052   0.000006  -0.000000
    10  H   -0.000062  -0.000007  -0.000052  -0.000198  -0.000172   0.000010
    11  H   -0.000028  -0.000036   0.000006  -0.000172  -0.000289  -0.000002
    12  H   -0.000018   0.000002  -0.000000   0.000010  -0.000002  -0.038851
    13  H   -0.000008  -0.000000  -0.000000   0.000014   0.000001   0.003747
              13
     1  O    0.002189
     2  O   -0.000137
     3  C    0.001683
     4  C   -0.000050
     5  C    0.000818
     6  C   -0.003128
     7  H   -0.000008
     8  H   -0.000000
     9  H   -0.000000
    10  H    0.000014
    11  H    0.000001
    12  H    0.003747
    13  H   -0.040930
 Mulliken charges and spin densities:
               1          2
     1  O   -0.089004  -0.023228
     2  O   -0.386859   0.039587
     3  C   -0.369011  -0.007246
     4  C   -0.389188   0.005898
     5  C    0.323555   0.032310
     6  C   -0.258395   1.025146
     7  H    0.175888   0.000958
     8  H    0.170284  -0.000257
     9  H    0.139720   0.000606
    10  H    0.153522  -0.000724
    11  H    0.152250  -0.000648
    12  H    0.205196  -0.036600
    13  H    0.172041  -0.035801
 Sum of Mulliken charges =  -0.00000   1.00000
 Mulliken charges and spin densities with hydrogens summed into heavy atoms:
               1          2
     1  O   -0.089004  -0.023228
     2  O   -0.386859   0.039587
     3  C   -0.022839  -0.006545
     4  C    0.056304   0.005132
     5  C    0.323555   0.032310
     6  C    0.118843   0.952744
 APT charges:
               1
     1  O   -0.012855
     2  O   -0.344956
     3  C   -0.885022
     4  C   -1.168878
     5  C    0.418194
     6  C   -1.085113
     7  H    0.379723
     8  H    0.467272
     9  H    0.574093
    10  H    0.272901
    11  H    0.320718
    12  H    0.418429
    13  H    0.645495
 Sum of APT charges =  -0.00000
 APT charges with hydrogens summed into heavy atoms:
               1
     1  O   -0.012855
     2  O   -0.344956
     3  C   -0.038027
     4  C   -0.001166
     5  C    0.418194
     6  C   -0.021189
 Electronic spatial extent (au):  <R**2>=            621.9375
 Charge=              0.0000 electrons
 Dipole moment (field-independent basis, Debye):
    X=             -1.1394    Y=             -1.7725    Z=              0.3947  Tot=              2.1438
 Quadrupole moment (field-independent basis, Debye-Ang):
   XX=            -32.3057   YY=            -40.1514   ZZ=            -36.6763
   XY=             -2.5439   XZ=             -1.1470   YZ=              1.2021
 Traceless Quadrupole moment (field-independent basis, Debye-Ang):
   XX=              4.0721   YY=             -3.7736   ZZ=             -0.2985
   XY=             -2.5439   XZ=             -1.1470   YZ=              1.2021
 Octapole moment (field-independent basis, Debye-Ang**2):
  XXX=              5.6806  YYY=             -6.8734  ZZZ=              1.1261  XYY=              0.7307
  XXY=             -2.9808  XXZ=             -2.1836  XZZ=             -1.5616  YZZ=              1.6516
  YYZ=              1.8648  XYZ=              0.2313
 Hexadecapole moment (field-independent basis, Debye-Ang**3):
 XXXX=           -527.7339 YYYY=           -201.7600 ZZZZ=            -80.2123 XXXY=             -8.1952
 XXXZ=            -12.8980 YYYX=            -11.9405 YYYZ=              0.9928 ZZZX=             -0.3141
 ZZZY=             -3.7988 XXYY=           -116.2137 XXZZ=           -110.2059 YYZZ=            -48.4865
 XXYZ=             -2.1802 YYXZ=              0.0057 ZZXY=              2.0464
 N-N= 2.380555886318D+02 E-N=-1.194215160906D+03  KE= 3.059315911187D+02
  Exact polarizability:   0.000   0.000   0.000   0.000   0.000   0.000
 Approx polarizability:  65.175  -1.075  66.897  -1.910  -3.221  54.857
                          Isotropic Fermi Contact Couplings
        Atom                 a.u.       MegaHertz       Gauss      10(-4) cm-1
     1  O(17)              0.01059      -6.42138      -2.29131      -2.14194
     2  O(17)              0.00516      -3.13035      -1.11699      -1.04417
     3  C(13)             -0.00266      -2.99076      -1.06718      -0.99761
     4  C(13)              0.00402       4.52102       1.61321       1.50805
     5  C(13)              0.00351       3.94256       1.40680       1.31510
     6  C(13)              0.17209     193.45941      69.03113      64.53111
     7  H(1)               0.00086       3.85836       1.37676       1.28701
     8  H(1)              -0.00017      -0.75940      -0.27097      -0.25331
     9  H(1)               0.00025       1.13465       0.40487       0.37848
    10  H(1)               0.00008       0.37919       0.13531       0.12649
    11  H(1)              -0.00005      -0.21613      -0.07712      -0.07209
    12  H(1)              -0.01421     -63.53561     -22.67108     -21.19320
    13  H(1)              -0.01418     -63.36910     -22.61167     -21.13766
 --------------------------------------------------------
       Center         ----  Spin Dipole Couplings  ----
                      3XX-RR        3YY-RR        3ZZ-RR
 --------------------------------------------------------
     1   Atom       -0.184649     -0.140947      0.325597
     2   Atom       -0.061303     -0.046684      0.107987
     3   Atom        0.003076     -0.002783     -0.000293
     4   Atom        0.005323     -0.003349     -0.001974
     5   Atom       -0.009644     -0.010981      0.020625
     6   Atom       -0.404170     -0.406176      0.810346
     7   Atom        0.004290     -0.003083     -0.001206
     8   Atom        0.002740     -0.000950     -0.001790
     9   Atom        0.002406     -0.001283     -0.001124
    10   Atom        0.004264     -0.001407     -0.002857
    11   Atom        0.002989     -0.002022     -0.000968
    12   Atom       -0.046166      0.032561      0.013605
    13   Atom       -0.038488      0.051683     -0.013194
 --------------------------------------------------------
                        XY            XZ            YZ
 --------------------------------------------------------
     1   Atom        0.038605      0.202089      0.167097
     2   Atom        0.004271      0.042623      0.050629
     3   Atom       -0.002601     -0.000389      0.000739
     4   Atom        0.001379      0.002967      0.000903
     5   Atom       -0.007664      0.012501      0.013295
     6   Atom        0.134259      0.446176      0.412138
     7   Atom       -0.000767     -0.003480      0.000202
     8   Atom       -0.002281     -0.000778      0.000317
     9   Atom        0.000267      0.000018      0.000019
    10   Atom        0.002429      0.000815      0.000637
    11   Atom       -0.000319      0.001949     -0.000163
    12   Atom        0.047490     -0.004744     -0.034137
    13   Atom       -0.051583      0.022188      0.008814
 --------------------------------------------------------


 ---------------------------------------------------------------------------------
              Anisotropic Spin Dipole Couplings in Principal Axis System
 ---------------------------------------------------------------------------------

       Atom             a.u.   MegaHertz   Gauss  10(-4) cm-1        Axes

              Baa    -0.2596    18.783     6.702     6.265  0.8941  0.2408 -0.3775
     1 O(17)  Bbb    -0.1860    13.456     4.801     4.488 -0.3244  0.9295 -0.1755
              Bcc     0.4455   -32.239   -11.504   -10.754  0.3087  0.2794  0.9092
 
              Baa    -0.0751     5.436     1.940     1.813  0.8415  0.4376 -0.3169
     2 O(17)  Bbb    -0.0571     4.133     1.475     1.379 -0.4966  0.8575 -0.1347
              Bcc     0.1322    -9.569    -3.415    -3.192  0.2127  0.2707  0.9389
 
              Baa    -0.0039    -0.518    -0.185    -0.173  0.3392  0.9278 -0.1553
     3 C(13)  Bbb    -0.0003    -0.040    -0.014    -0.013  0.1866  0.0955  0.9778
              Bcc     0.0042     0.557     0.199     0.186  0.9220 -0.3607 -0.1407
 
              Baa    -0.0038    -0.510    -0.182    -0.170  0.0185  0.8838 -0.4675
     4 C(13)  Bbb    -0.0028    -0.381    -0.136    -0.127 -0.3716  0.4402  0.8174
              Bcc     0.0066     0.890     0.318     0.297  0.9282  0.1586  0.3366
 
              Baa    -0.0253    -3.390    -1.210    -1.131  0.6306  0.6824 -0.3695
     5 C(13)  Bbb    -0.0026    -0.352    -0.126    -0.117  0.7330 -0.6802 -0.0052
              Bcc     0.0279     3.742     1.335     1.248  0.2549  0.2676  0.9292
 
              Baa    -0.5505   -73.871   -26.359   -24.641  0.9455  0.0421 -0.3228
     6 C(13)  Bbb    -0.5323   -71.433   -25.489   -23.827 -0.1286  0.9592 -0.2517
              Bcc     1.0828   145.304    51.848    48.468  0.2990  0.2795  0.9124
 
              Baa    -0.0032    -1.718    -0.613    -0.573  0.2522  0.9041  0.3449
     7 H(1)   Bbb    -0.0028    -1.506    -0.537    -0.502  0.3623 -0.4187  0.8327
              Bcc     0.0060     3.224     1.150     1.075  0.8973 -0.0850 -0.4332
 
              Baa    -0.0021    -1.097    -0.391    -0.366  0.4488  0.8348  0.3190
     8 H(1)   Bbb    -0.0019    -1.012    -0.361    -0.337 -0.0149 -0.3499  0.9367
              Bcc     0.0040     2.108     0.752     0.703  0.8935 -0.4251 -0.1445
 
              Baa    -0.0013    -0.695    -0.248    -0.232 -0.0710  0.9929 -0.0953
     9 H(1)   Bbb    -0.0011    -0.599    -0.214    -0.200 -0.0123  0.0947  0.9954
              Bcc     0.0024     1.294     0.462     0.432  0.9974  0.0719  0.0055
 
              Baa    -0.0031    -1.654    -0.590    -0.552  0.0235 -0.3815  0.9241
    10 H(1)   Bbb    -0.0022    -1.164    -0.415    -0.388 -0.3684  0.8560  0.3627
              Bcc     0.0053     2.818     1.005     0.940  0.9294  0.3490  0.1204
 
              Baa    -0.0020    -1.092    -0.390    -0.364  0.0159  0.9925  0.1213
    11 H(1)   Bbb    -0.0018    -0.941    -0.336    -0.314 -0.3834 -0.1060  0.9175
              Bcc     0.0038     2.033     0.725     0.678  0.9234 -0.0611  0.3789
 
              Baa    -0.0699   -37.287   -13.305   -12.438  0.8809 -0.4535 -0.1354
    12 H(1)   Bbb    -0.0034    -1.804    -0.644    -0.602  0.3299  0.3834  0.8626
              Bcc     0.0733    39.091    13.949    13.039  0.3393  0.8046 -0.4874
 
              Baa    -0.0716   -38.225   -13.640   -12.751  0.8443  0.3801 -0.3778
    13 H(1)   Bbb    -0.0035    -1.856    -0.662    -0.619  0.3384  0.1685  0.9258
              Bcc     0.0751    40.081    14.302    13.370 -0.4156  0.9095 -0.0137
 

 ---------------------------------------------------------------------------------

 No NMR shielding tensors so no spin-rotation constants.
 Leave Link  601 at Mon Mar 11 00:09:35 2019, MaxMem=   671088640 cpu:               7.4 elap:               0.4
 (Enter /shared/centos7/gaussian/g16/l701.exe)
 ... and contract with generalized density number  0.
 Compute integral second derivatives.
 Leave Link  701 at Mon Mar 11 00:09:35 2019, MaxMem=   671088640 cpu:               6.5 elap:               0.3
 (Enter /shared/centos7/gaussian/g16/l702.exe)
 L702 exits ... SP integral derivatives will be done elsewhere.
 Leave Link  702 at Mon Mar 11 00:09:35 2019, MaxMem=   671088640 cpu:               0.3 elap:               0.0
 (Enter /shared/centos7/gaussian/g16/l703.exe)
 Integral derivatives from FoFJK, PRISM(SPDF).
 Compute integral second derivatives, UseDBF=F ICtDFT=           0.
 Calling FoFJK, ICntrl=    100147 FMM=F ISym2X=0 I1Cent= 0 IOpClX= 1 NMat=1 NMatS=1 NMatT=0.
 FoFJK:  IHMeth= 1 ICntrl=  100147 DoSepK=F KAlg= 0 I1Cent=           0 FoldK=F
 IRaf=         0 NMat=       1 IRICut=       1 DoRegI=T DoRafI=F ISym2E= 0 IDoP0=0 IntGTp=1.
 FoFCou: FMM=F IPFlag=           0 FMFlag=      100000 FMFlg1=         800
         NFxFlg=           0 DoJE=F BraDBF=F KetDBF=F FulRan=T
         wScrn=  0.000000 ICntrl=    100147 IOpCl=  1 I1Cent=           0 NGrid=           0
         NMat0=    1 NMatS0=      1 NMatT0=    0 NMatD0=    1 NMtDS0=    0 NMtDT0=    0
 Symmetry not used in FoFCou.
 Leave Link  703 at Mon Mar 11 00:11:03 2019, MaxMem=   671088640 cpu:            1747.9 elap:              87.4
 (Enter /shared/centos7/gaussian/g16/l716.exe)
 Dipole        =-4.48275844D-01-6.97338660D-01 1.55302427D-01
 Polarizability= 0.00000000D+00 0.00000000D+00 0.00000000D+00
                 0.00000000D+00 0.00000000D+00 0.00000000D+00
 ***** Axes restored to original set *****
 -------------------------------------------------------------------
 Center     Atomic                   Forces (Hartrees/Bohr)
 Number     Number              X              Y              Z
 -------------------------------------------------------------------
      1        8           0.000000076   -0.000000212    0.000000053
      2        8           0.000000520   -0.000000250    0.000000044
      3        6           0.000000109    0.000000329   -0.000000138
      4        6          -0.000000305    0.000000397   -0.000000138
      5        6           0.000000165   -0.000000150    0.000000100
      6        6           0.000000013   -0.000000536    0.000000280
      7        1           0.000000155    0.000000444   -0.000000225
      8        1           0.000000350    0.000000403   -0.000000183
      9        1          -0.000000394    0.000000638   -0.000000246
     10        1          -0.000000518    0.000000244   -0.000000059
     11        1          -0.000000339    0.000000201   -0.000000069
     12        1           0.000000277   -0.000000790    0.000000283
     13        1          -0.000000109   -0.000000719    0.000000297
 -------------------------------------------------------------------
 Cartesian Forces:  Max     0.000000790 RMS     0.000000333
 Force constants in Cartesian coordinates: 
                1             2             3             4             5 
      1  0.505190D+00
      2  0.722555D-01  0.854520D-01
      3  0.108248D+00 -0.886643D-01  0.379689D+00
      4  0.276072D-01 -0.871870D-03  0.248453D-02  0.298108D+00
      5  0.204513D-02  0.119496D-01  0.459981D-01  0.164050D+00  0.157696D+00
      6 -0.471586D-02  0.441790D-01 -0.106429D+00 -0.296717D+00 -0.261612D+00
      7 -0.274621D-01 -0.549459D-02 -0.111323D-01 -0.183506D-01 -0.149916D-01
      8  0.664030D-02  0.114953D-01  0.253092D-02 -0.221060D-01  0.157671D-01
      9 -0.437911D-01 -0.455268D-02 -0.805053D-02  0.361107D-01  0.201066D-01
     10 -0.141356D-02  0.121139D-02 -0.790446D-03 -0.551078D-02  0.326509D-02
     11  0.234330D-02 -0.863545D-03  0.299744D-02  0.368125D-02  0.117787D-02
     12 -0.811532D-03  0.129850D-02 -0.654864D-03  0.149577D-02 -0.528364D-03
     13 -0.141756D+00 -0.473580D-03 -0.498408D-01 -0.305977D+00 -0.148298D+00
     14 -0.246888D-02 -0.761352D-01  0.253924D-01 -0.142453D+00 -0.181121D+00
     15 -0.481622D-01  0.269179D-01 -0.178900D+00  0.259296D+00  0.199331D+00
     16 -0.305397D+00 -0.646243D-01 -0.325193D-01  0.745836D-03 -0.369215D-02
     17 -0.636670D-01 -0.332802D-01  0.202409D-01  0.291308D-02 -0.279152D-02
     18 -0.331455D-02  0.278569D-01 -0.100342D+00  0.291426D-03 -0.105562D-02
     19  0.193869D-02 -0.131519D-02 -0.202523D-02 -0.542104D-02 -0.508406D-02
     20  0.194946D-03 -0.168135D-03  0.156453D-03 -0.257987D-02 -0.224191D-02
     21 -0.142959D-02  0.123120D-04 -0.711557D-05  0.109123D-02 -0.688579D-03
     22 -0.870119D-02 -0.200643D-02 -0.104877D-02  0.318528D-02 -0.457219D-03
     23 -0.339012D-02  0.411873D-03 -0.459568D-03  0.197293D-03 -0.350622D-03
     24 -0.894065D-03  0.230301D-03  0.807251D-03  0.109263D-02 -0.586405D-03
     25  0.123742D-03 -0.347665D-03  0.159381D-03  0.825507D-04 -0.110237D-03
     26 -0.102019D-02  0.925538D-03 -0.973944D-03 -0.263135D-02  0.480976D-03
     27 -0.293785D-03 -0.637385D-03  0.383438D-03 -0.664747D-04 -0.204651D-03
     28 -0.370542D-03 -0.402721D-03 -0.152334D-03 -0.679127D-04 -0.223084D-04
     29 -0.851038D-04  0.515073D-03 -0.899520D-03 -0.655961D-03  0.179943D-03
     30  0.266478D-04 -0.112298D-02  0.612372D-03  0.325738D-03 -0.481449D-04
     31 -0.103835D-03  0.230319D-03  0.220759D-03  0.235094D-03  0.415941D-03
     32 -0.619668D-03  0.238762D-04  0.441530D-04 -0.688945D-03 -0.814348D-04
     33 -0.562516D-03 -0.747483D-04 -0.214578D-03 -0.702150D-03 -0.236614D-03
     34 -0.262509D-01 -0.855031D-02  0.215345D-01  0.210991D-02  0.162841D-02
     35 -0.673314D-02 -0.294703D-03  0.490255D-02  0.637016D-03 -0.887880D-03
     36 -0.453038D-02 -0.320460D-02  0.991798D-02 -0.293519D-02  0.187590D-03
     37 -0.234038D-01  0.103895D-01 -0.351385D-01  0.325424D-02  0.125072D-02
     38 -0.549507D-02 -0.315010D-04 -0.112657D-01  0.508205D-03  0.222770D-03
     39  0.230392D-03 -0.223820D-02  0.318833D-02 -0.176742D-02 -0.663140D-03
                6             7             8             9            10 
      6  0.592937D+00
      7  0.117247D-01  0.519555D+00
      8  0.132119D-01 -0.366613D-01  0.463193D+00
      9 -0.277587D-02  0.167152D-01 -0.120660D-01  0.631022D+00
     10  0.275859D-02 -0.775820D-01 -0.148973D-01 -0.318507D-02  0.583962D+00
     11 -0.248940D-02 -0.591624D-02 -0.188527D+00  0.595182D-02 -0.108263D-01
     12 -0.120823D-03 -0.259856D-02  0.655675D-02 -0.772516D-01  0.239181D-02
     13  0.277672D+00 -0.202706D+00 -0.209588D-01 -0.624655D-03 -0.629603D-03
     14  0.204176D+00 -0.236426D-01 -0.911186D-01 -0.536026D-02 -0.388178D-01
     15 -0.485701D+00 -0.508527D-02 -0.481084D-02 -0.783184D-01  0.174206D-02
     16  0.137836D-01  0.347816D-02 -0.415161D-04  0.533570D-03 -0.355931D-03
     17  0.875964D-03  0.583700D-03  0.160294D-02  0.282021D-02  0.386904D-03
     18  0.883366D-03 -0.981094D-03  0.233710D-02 -0.411274D-02  0.113220D-03
     19 -0.996189D-03 -0.997405D-01  0.511794D-01  0.881456D-01  0.294089D-02
     20 -0.210153D-03  0.500714D-01 -0.892568D-01 -0.901092D-01  0.148488D-01
     21  0.152869D-02  0.895907D-01 -0.917103D-01 -0.220077D+00 -0.161520D-02
     22  0.149462D-02 -0.988078D-01  0.406603D-01 -0.915646D-01  0.258514D-02
     23 -0.619294D-03  0.440103D-01 -0.814154D-01  0.817938D-01  0.140415D-01
     24  0.131763D-02 -0.990855D-01  0.804607D-01 -0.242996D+00  0.895120D-03
     25 -0.116479D-03 -0.920938D-03  0.153120D-03  0.389287D-04 -0.308188D+00
     26  0.128138D-02 -0.344540D-01 -0.112134D-01 -0.582584D-03 -0.590950D-01
     27  0.360369D-03  0.203087D-02  0.115439D-02 -0.666056D-03  0.147910D-02
     28 -0.334462D-03  0.121867D-02 -0.172362D-02  0.413519D-02 -0.965645D-01
     29 -0.649720D-03  0.138350D-01 -0.140453D-01  0.288875D-01  0.394674D-01
     30  0.372107D-03  0.903643D-03  0.594740D-03  0.541044D-04 -0.956721D-01
     31  0.154815D-03  0.149475D-02 -0.265598D-02 -0.441727D-02 -0.991948D-01
     32  0.115826D-02  0.129045D-01 -0.168651D-01 -0.263806D-01  0.503598D-01
     33  0.599450D-04 -0.233911D-02  0.165556D-02  0.335400D-02  0.918290D-01
     34 -0.313668D-02  0.781967D-04  0.122595D-03 -0.461909D-03  0.517192D-04
     35  0.828607D-03 -0.434121D-04 -0.367325D-04 -0.812649D-04 -0.169064D-04
     36 -0.319052D-02  0.247288D-03 -0.752677D-04 -0.233223D-03  0.347215D-04
     37 -0.157159D-02 -0.254480D-03  0.288673D-03 -0.163471D-02 -0.100895D-03
     38 -0.131372D-03 -0.201165D-03  0.419488D-03 -0.427269D-03  0.723578D-04
     39  0.758333D-03  0.940983D-05  0.160428D-03  0.518244D-04  0.191690D-04
               11            12            13            14            15 
     11  0.467990D+00
     12  0.539029D-02  0.582067D+00
     13 -0.173176D-01  0.291631D-02  0.726486D+00
     14 -0.131984D-01  0.986647D-03  0.181639D+00  0.355206D+00
     15 -0.453938D-04 -0.622908D-03 -0.182406D+00 -0.219969D+00  0.755116D+00
     16 -0.513186D-04 -0.488624D-03 -0.491703D-01  0.163724D-02 -0.425328D-01
     17  0.182408D-03 -0.234499D-03  0.371984D-02  0.577790D-02 -0.430114D-02
     18  0.154540D-03 -0.482295D-04 -0.504770D-01 -0.967058D-02 -0.499914D-02
     19 -0.189965D-02 -0.457284D-02 -0.119979D-01  0.170065D-01  0.309351D-01
     20 -0.179037D-01 -0.273986D-01 -0.376052D-02  0.374430D-02  0.794332D-02
     21  0.160394D-02  0.299575D-02  0.110963D-02  0.230375D-02 -0.298020D-02
     22 -0.184287D-02  0.513134D-02 -0.127501D-01  0.135306D-01 -0.304698D-01
     23 -0.131328D-01  0.281256D-01 -0.347428D-02  0.143751D-02 -0.743365D-02
     24  0.984903D-04  0.118915D-02  0.202873D-02 -0.283037D-03 -0.206517D-02
     25 -0.607157D-01  0.131432D-02  0.113403D-02  0.347161D-03 -0.180581D-03
     26 -0.589718D-01  0.167885D-03  0.453627D-02 -0.711627D-02  0.864878D-03
     27 -0.303847D-04 -0.478038D-01 -0.640935D-03  0.777880D-03 -0.625640D-03
     28  0.411426D-01 -0.964179D-01  0.618794D-03 -0.700379D-04  0.145152D-02
     29 -0.790047D-01  0.777944D-01  0.237307D-02  0.425910D-03  0.276924D-02
     30  0.800245D-01 -0.241582D+00 -0.140995D-02  0.723234D-03 -0.145972D-02
     31  0.512379D-01  0.916612D-01  0.800722D-03 -0.397626D-03 -0.130254D-02
     32 -0.978361D-01 -0.921805D-01  0.289093D-02  0.121443D-02 -0.222108D-02
     33 -0.936464D-01 -0.218184D+00  0.673160D-03 -0.438803D-03  0.243977D-03
     34  0.221956D-04  0.139685D-04  0.440940D-03 -0.280921D-02  0.872557D-02
     35  0.588180D-04  0.210215D-04  0.125034D-02 -0.199779D-03 -0.188259D-04
     36 -0.106406D-05 -0.157838D-04 -0.776893D-03 -0.199777D-03  0.753449D-03
     37  0.142449D-03 -0.352671D-04 -0.449247D-02 -0.350138D-02  0.798911D-02
     38  0.290619D-04  0.000000D+00 -0.212689D-02  0.108280D-02  0.973926D-03
     39 -0.834459D-05  0.320502D-04  0.177676D-02  0.156109D-02 -0.440298D-03
               16            17            18            19            20 
     16  0.571994D+00
     17  0.803607D-01  0.974961D-01
     18  0.334101D-01 -0.206121D+00  0.666355D+00
     19 -0.872082D-03 -0.681032D-03 -0.410053D-03  0.104784D+00
     20  0.166965D-03 -0.106658D-03  0.111515D-03 -0.511988D-01  0.103803D+00
     21  0.299464D-03  0.965598D-04  0.273777D-03 -0.100138D+00  0.993137D-01
     22  0.400260D-03  0.356509D-03 -0.124664D-02  0.705064D-02 -0.653212D-02
     23 -0.476680D-05  0.400473D-03 -0.187693D-03 -0.744875D-02  0.512775D-02
     24  0.561201D-03  0.272950D-03  0.351926D-03 -0.110257D-01  0.862898D-02
     25  0.885959D-04 -0.349901D-04  0.712805D-04  0.314667D-03 -0.336999D-03
     26 -0.163232D-03  0.870859D-04 -0.915128D-04  0.289368D-03  0.180279D-02
     27  0.408771D-03 -0.852490D-05  0.109827D-03 -0.518571D-03 -0.586594D-04
     28 -0.258340D-03 -0.341229D-04 -0.184304D-04 -0.239981D-04  0.485593D-03
     29 -0.676101D-03 -0.996094D-05 -0.429713D-03  0.403160D-03  0.157953D-02
     30  0.358935D-03 -0.212631D-04  0.980691D-04  0.319609D-03  0.279213D-03
     31 -0.316090D-05  0.000000D+00  0.263572D-04  0.776781D-03 -0.136300D-02
     32  0.119849D-03 -0.341012D-04 -0.647188D-04 -0.144413D-02 -0.641167D-02
     33  0.575603D-04  0.100114D-04  0.523257D-04  0.120697D-03  0.130858D-02
     34 -0.129486D+00 -0.484045D-01  0.116856D+00  0.193940D-03 -0.238012D-04
     35 -0.462132D-01 -0.283023D-01  0.746140D-01  0.117195D-03  0.438204D-05
     36  0.131458D+00  0.863834D-01 -0.265756D+00  0.150386D-03  0.511981D-04
     37 -0.911639D-01  0.245003D-01 -0.943205D-01  0.559455D-04  0.273460D-04
     38  0.331818D-01 -0.410222D-01  0.112547D+00  0.760027D-04  0.266968D-04
     39 -0.105331D+00  0.999864D-01 -0.292866D+00  0.157341D-04 -0.163877D-04
[...]
  Beta virt. eigenvalues --    1.17017   1.19119   1.20404   1.21699   1.23661
  Beta virt. eigenvalues --    1.24984   1.27154   1.28139   1.29127   1.31266
  Beta virt. eigenvalues --    1.33532   1.34188   1.36979   1.38868   1.42176
  Beta virt. eigenvalues --    1.42857   1.45092   1.46763   1.49623   1.50501
  Beta virt. eigenvalues --    1.51857   1.54648   1.57821   1.60601   1.62893
  Beta virt. eigenvalues --    1.64092   1.67455   1.68120   1.71220   1.74098
  Beta virt. eigenvalues --    1.82833   1.85176   1.92814   2.04489   2.12661
  Beta virt. eigenvalues --    2.15598   2.31157   2.38503   2.44368   2.47823
  Beta virt. eigenvalues --    2.49917   2.52269   2.53779   2.60511   2.62665
  Beta virt. eigenvalues --    2.66686   2.70487   2.74957   2.79127   2.83783
  Beta virt. eigenvalues --    2.84513   2.85377   2.89359   2.95253   2.96690
  Beta virt. eigenvalues --    2.98506   2.99896   3.02463   3.03965   3.05457
  Beta virt. eigenvalues --    3.07677   3.10382   3.12813   3.13542   3.16542
  Beta virt. eigenvalues --    3.18345   3.21832   3.25086   3.26576   3.29917
  Beta virt. eigenvalues --    3.31022   3.31669   3.33386   3.35709   3.37756
  Beta virt. eigenvalues --    3.39890   3.42065   3.46025   3.48383   3.49188
  Beta virt. eigenvalues --    3.50855   3.54881   3.58829   3.60399   3.62026
  Beta virt. eigenvalues --    3.65835   3.68129   3.69928   3.76936   3.78698
  Beta virt. eigenvalues --    3.83123   3.84559   3.85830   3.88536   3.91704
  Beta virt. eigenvalues --    3.94347   3.97105   3.98215   4.00313   4.04422
  Beta virt. eigenvalues --    4.07401   4.09970   4.18420   4.20392   4.21478
  Beta virt. eigenvalues --    4.21999   4.23742   4.26215   4.27574   4.30370
  Beta virt. eigenvalues --    4.35297   4.37093   4.47556   4.49525   4.49931
  Beta virt. eigenvalues --    4.53929   4.56044   4.58814   4.64955   4.71620
  Beta virt. eigenvalues --    4.91748   5.07514   5.08531   5.14351   5.20422
  Beta virt. eigenvalues --    5.21376   5.22257   5.25292   5.31636   5.37867
  Beta virt. eigenvalues --    5.44229   5.46515   5.51201   5.53821   5.56624
  Beta virt. eigenvalues --    5.57460   5.63387   5.65455   5.71295   5.74908
  Beta virt. eigenvalues --    5.81583   5.97061   6.15143   6.40492   6.51150
  Beta virt. eigenvalues --    6.72203   6.82335   6.93237   7.04911   7.06846
  Beta virt. eigenvalues --    7.16262   7.18329   7.26033   7.31698   7.52027
  Beta virt. eigenvalues --    7.66077   7.76114   7.83204  24.32359  24.44104
  Beta virt. eigenvalues --   24.47063  24.81935  50.16940  50.30036
          Condensed to atoms (all electrons):
               1          2          3          4          5          6
     1  O    8.163003  -0.100026  -0.092482  -0.018317   0.160531   0.061588
     2  O   -0.100026   8.127594   0.005839  -0.024662   0.397884  -0.018510
     3  C   -0.092482   0.005839   5.752946   0.057014  -0.079258  -0.093638
     4  C   -0.018317  -0.024662   0.057014   5.289443  -0.106928   0.004272
     5  C    0.160531   0.397884  -0.079258  -0.106928   5.537634  -0.091176
     6  C    0.061588  -0.018510  -0.093638   0.004272  -0.091176   5.527110
     7  H   -0.004948   0.003508   0.442264  -0.044249  -0.053235   0.002163
     8  H    0.008194  -0.005971   0.474282  -0.010408  -0.086488  -0.001086
     9  H   -0.000345  -0.001011  -0.064499   0.408824   0.041176  -0.000105
    10  H   -0.000240   0.001400  -0.008097   0.420890  -0.032285   0.001284
    11  H   -0.000566   0.001510  -0.026751   0.413227  -0.013793   0.000728
    12  H   -0.036662  -0.002358  -0.003823  -0.000210  -0.003765   0.432618
    13  H   -0.050741   0.001665   0.005321   0.000183   0.006112   0.433199
               7          8          9         10         11         12
     1  O   -0.004948   0.008194  -0.000345  -0.000240  -0.000566  -0.036662
     2  O    0.003508  -0.005971  -0.001011   0.001400   0.001510  -0.002358
     3  C    0.442264   0.474282  -0.064499  -0.008097  -0.026751  -0.003823
     4  C   -0.044249  -0.010408   0.408824   0.420890   0.413227  -0.000210
     5  C   -0.053235  -0.086488   0.041176  -0.032285  -0.013793  -0.003765
     6  C    0.002163  -0.001086  -0.000105   0.001284   0.000728   0.432618
     7  H    0.509417  -0.026590  -0.003500  -0.005956   0.005303  -0.000030
     8  H   -0.026590   0.483569  -0.005022   0.004124  -0.004947   0.000031
     9  H   -0.003500  -0.005022   0.534760  -0.025513  -0.024476   0.000003
    10  H   -0.005956   0.004124  -0.025513   0.522489  -0.031575  -0.000026
    11  H    0.005303  -0.004947  -0.024476  -0.031575   0.529090  -0.000008
    12  H   -0.000030   0.000031   0.000003  -0.000026  -0.000008   0.433513
    13  H   -0.000024   0.000008  -0.000001   0.000018   0.000003  -0.024488
              13
     1  O   -0.050741
     2  O    0.001665
     3  C    0.005321
     4  C    0.000183
     5  C    0.006112
     6  C    0.433199
     7  H   -0.000024
     8  H    0.000008
     9  H   -0.000001
    10  H    0.000018
    11  H    0.000003
    12  H   -0.024488
    13  H    0.456684
          Atomic-Atomic Spin Densities.
               1          2          3          4          5          6
     1  O    0.120111  -0.007008  -0.002913   0.002662   0.036743  -0.173153
     2  O   -0.007008   0.036535   0.000132  -0.000344  -0.008821   0.016224
     3  C   -0.002913   0.000132   0.001743  -0.006465   0.004195  -0.004712
     4  C    0.002662  -0.000344  -0.006465   0.018030  -0.008792  -0.000967
     5  C    0.036743  -0.008821   0.004195  -0.008792   0.036856  -0.025508
     6  C   -0.173153   0.016224  -0.004712  -0.000967  -0.025508   1.217454
     7  H   -0.000265   0.000240   0.001964  -0.000525  -0.002082   0.000573
     8  H   -0.000106   0.000130  -0.000900   0.001101  -0.000337  -0.000084
     9  H    0.000207  -0.000038  -0.002219   0.001205   0.000843  -0.000019
    10  H   -0.000721   0.000100  -0.000189   0.000915  -0.000938   0.000579
    11  H   -0.000126   0.000059   0.000813  -0.000891   0.000032  -0.000014
    12  H   -0.000838   0.002529  -0.000372   0.000015  -0.000699  -0.002110
    13  H    0.002184  -0.000137   0.001681  -0.000050   0.000820  -0.003106
               7          8          9         10         11         12
     1  O   -0.000265  -0.000106   0.000207  -0.000721  -0.000126  -0.000838
     2  O    0.000240   0.000130  -0.000038   0.000100   0.000059   0.002529
     3  C    0.001964  -0.000900  -0.002219  -0.000189   0.000813  -0.000372
     4  C   -0.000525   0.001101   0.001205   0.000915  -0.000891   0.000015
     5  C   -0.002082  -0.000337   0.000843  -0.000938   0.000032  -0.000699
     6  C    0.000573  -0.000084  -0.000019   0.000579  -0.000014  -0.002110
     7  H    0.000841   0.000142   0.000185  -0.000061  -0.000028  -0.000018
     8  H    0.000142  -0.000209   0.000047  -0.000007  -0.000036   0.000002
     9  H    0.000185   0.000047   0.000439  -0.000051   0.000006  -0.000000
    10  H   -0.000061  -0.000007  -0.000051  -0.000200  -0.000172   0.000010
    11  H   -0.000028  -0.000036   0.000006  -0.000172  -0.000288  -0.000002
    12  H   -0.000018   0.000002  -0.000000   0.000010  -0.000002  -0.038880
    13  H   -0.000008  -0.000000  -0.000000   0.000014   0.000001   0.003745
              13
     1  O    0.002184
     2  O   -0.000137
     3  C    0.001681
     4  C   -0.000050
     5  C    0.000820
     6  C   -0.003106
     7  H   -0.000008
     8  H   -0.000000
     9  H   -0.000000
    10  H    0.000014
    11  H    0.000001
    12  H    0.003745
    13  H   -0.040962
 Mulliken charges and spin densities:
               1          2
     1  O   -0.088988  -0.023222
     2  O   -0.386862   0.039603
     3  C   -0.369118  -0.007242
     4  C   -0.389077   0.005894
     5  C    0.323591   0.032313
     6  C   -0.258445   1.025156
     7  H    0.175876   0.000956
     8  H    0.170305  -0.000257
     9  H    0.139710   0.000604
    10  H    0.153486  -0.000723
    11  H    0.152256  -0.000646
    12  H    0.205205  -0.036617
    13  H    0.172063  -0.035818
 Sum of Mulliken charges =  -0.00000   1.00000
 Mulliken charges and spin densities with hydrogens summed into heavy atoms:
               1          2
     1  O   -0.088988  -0.023222
     2  O   -0.386862   0.039603
     3  C   -0.022937  -0.006543
     4  C    0.056374   0.005129
     5  C    0.323591   0.032313
     6  C    0.118822   0.952720
 Electronic spatial extent (au):  <R**2>=            621.9961
 Charge=             -0.0000 electrons
 Dipole moment (field-independent basis, Debye):
    X=             -1.1392    Y=             -1.7723    Z=              0.3948  Tot=              2.1436
 Quadrupole moment (field-independent basis, Debye-Ang):
   XX=            -32.3044   YY=            -40.1524   ZZ=            -36.6756
   XY=             -2.5428   XZ=             -1.1459   YZ=              1.2002
 Traceless Quadrupole moment (field-independent basis, Debye-Ang):
   XX=              4.0731   YY=             -3.7749   ZZ=             -0.2982
   XY=             -2.5428   XZ=             -1.1459   YZ=              1.2002
 Octapole moment (field-independent basis, Debye-Ang**2):
  XXX=              5.6877  YYY=             -6.8718  ZZZ=              1.1301  XYY=              0.7318
  XXY=             -2.9818  XXZ=             -2.1814  XZZ=             -1.5621  YZZ=              1.6524
  YYZ=              1.8649  XYZ=              0.2297
 Hexadecapole moment (field-independent basis, Debye-Ang**3):
 XXXX=           -527.8265 YYYY=           -201.7253 ZZZZ=            -80.2290 XXXY=             -8.2031
 XXXZ=            -12.8889 YYYX=            -11.9335 YYYZ=              0.9926 ZZZX=             -0.3091
 ZZZY=             -3.8040 XXYY=           -116.2249 XXZZ=           -110.2239 YYZZ=            -48.4789
 XXYZ=             -2.1914 YYXZ=              0.0096 ZZXY=              2.0452
 N-N= 2.380502387651D+02 E-N=-1.194204473732D+03  KE= 3.059315555792D+02
                          Isotropic Fermi Contact Couplings
        Atom                 a.u.       MegaHertz       Gauss      10(-4) cm-1
     1  O(17)              0.01059      -6.41808      -2.29013      -2.14084
     2  O(17)              0.00517      -3.13265      -1.11781      -1.04494
     3  C(13)             -0.00266      -2.99121      -1.06734      -0.99776
     4  C(13)              0.00402       4.52135       1.61333       1.50816
     5  C(13)              0.00351       3.94313       1.40701       1.31529
     6  C(13)              0.17197     193.32211      68.98213      64.48531
     7  H(1)               0.00086       3.85658       1.37612       1.28642
     8  H(1)              -0.00017      -0.75880      -0.27076      -0.25311
     9  H(1)               0.00025       1.13158       0.40378       0.37745
    10  H(1)               0.00008       0.37810       0.13491       0.12612
    11  H(1)              -0.00005      -0.21590      -0.07704      -0.07202
    12  H(1)              -0.01422     -63.57195     -22.68405     -21.20532
    13  H(1)              -0.01418     -63.40365     -22.62400     -21.14918
 --------------------------------------------------------
       Center         ----  Spin Dipole Couplings  ----
                      3XX-RR        3YY-RR        3ZZ-RR
 --------------------------------------------------------
     1   Atom       -0.184668     -0.140844      0.325512
     2   Atom       -0.061349     -0.046739      0.108088
     3   Atom        0.003077     -0.002785     -0.000293
     4   Atom        0.005323     -0.003351     -0.001973
     5   Atom       -0.009645     -0.010993      0.020638
     6   Atom       -0.404232     -0.405931      0.810163
     7   Atom        0.004290     -0.003084     -0.001206
     8   Atom        0.002741     -0.000951     -0.001790
     9   Atom        0.002406     -0.001283     -0.001123
    10   Atom        0.004262     -0.001407     -0.002855
    11   Atom        0.002988     -0.002020     -0.000968
    12   Atom       -0.046182      0.032579      0.013602
    13   Atom       -0.038456      0.051652     -0.013196
 --------------------------------------------------------
                        XY            XZ            YZ
 --------------------------------------------------------
     1   Atom        0.038643      0.202036      0.167268
     2   Atom        0.004250      0.042597      0.050618
     3   Atom       -0.002599     -0.000391      0.000738
     4   Atom        0.001377      0.002968      0.000902
     5   Atom       -0.007664      0.012504      0.013288
     6   Atom        0.134374      0.446076      0.412533
     7   Atom       -0.000765     -0.003482      0.000202
     8   Atom       -0.002281     -0.000780      0.000317
     9   Atom        0.000267      0.000018      0.000018
    10   Atom        0.002427      0.000817      0.000638
    11   Atom       -0.000320      0.001947     -0.000164
    12   Atom        0.047487     -0.004741     -0.034128
    13   Atom       -0.051606      0.022215      0.008782
 --------------------------------------------------------


 ---------------------------------------------------------------------------------
              Anisotropic Spin Dipole Couplings in Principal Axis System
 ---------------------------------------------------------------------------------

       Atom             a.u.   MegaHertz   Gauss  10(-4) cm-1        Axes

              Baa    -0.2596    18.783     6.702     6.265  0.8941  0.2410 -0.3776
     1 O(17)  Bbb    -0.1860    13.456     4.801     4.488 -0.3247  0.9294 -0.1757
              Bcc     0.4455   -32.239   -11.504   -10.754  0.3086  0.2797  0.9091
 
              Baa    -0.0752     5.439     1.941     1.814  0.8414  0.4379 -0.3166
     2 O(17)  Bbb    -0.0571     4.135     1.475     1.379 -0.4968  0.8574 -0.1346
              Bcc     0.1323    -9.574    -3.416    -3.193  0.2125  0.2705  0.9390
 
              Baa    -0.0039    -0.518    -0.185    -0.173  0.3390  0.9279 -0.1549
     3 C(13)  Bbb    -0.0003    -0.040    -0.014    -0.013  0.1867  0.0950  0.9778
              Bcc     0.0042     0.557     0.199     0.186  0.9221 -0.3604 -0.1410
 
              Baa    -0.0038    -0.510    -0.182    -0.170  0.0185  0.8841 -0.4670
     4 C(13)  Bbb    -0.0028    -0.381    -0.136    -0.127 -0.3716  0.4397  0.8177
              Bcc     0.0066     0.890     0.318     0.297  0.9282  0.1584  0.3367
 
              Baa    -0.0253    -3.390    -1.210    -1.131  0.6306  0.6826 -0.3694
     5 C(13)  Bbb    -0.0026    -0.352    -0.126    -0.118  0.7330 -0.6802 -0.0055
              Bcc     0.0279     3.743     1.336     1.248  0.2550  0.2673  0.9293
 
              Baa    -0.5505   -73.873   -26.360   -24.641  0.9455  0.0421 -0.3228
     6 C(13)  Bbb    -0.5323   -71.434   -25.490   -23.828 -0.1287  0.9591 -0.2520
              Bcc     1.0828   145.307    51.849    48.469  0.2990  0.2798  0.9123
 
              Baa    -0.0032    -1.718    -0.613    -0.573  0.2519  0.9043  0.3447
     7 H(1)   Bbb    -0.0028    -1.506    -0.537    -0.502  0.3626 -0.4184  0.8327
              Bcc     0.0060     3.225     1.151     1.076  0.8973 -0.0848 -0.4333
 
              Baa    -0.0021    -1.097    -0.391    -0.366  0.4487  0.8344  0.3200
     8 H(1)   Bbb    -0.0019    -1.012    -0.361    -0.338 -0.0152 -0.3509  0.9363
              Bcc     0.0040     2.109     0.752     0.703  0.8935 -0.4250 -0.1448
 
              Baa    -0.0013    -0.695    -0.248    -0.232 -0.0711  0.9930 -0.0946
     9 H(1)   Bbb    -0.0011    -0.599    -0.214    -0.200 -0.0121  0.0940  0.9955
              Bcc     0.0024     1.294     0.462     0.432  0.9974  0.0719  0.0053
 
              Baa    -0.0031    -1.653    -0.590    -0.551  0.0235 -0.3822  0.9238
    10 H(1)   Bbb    -0.0022    -1.164    -0.415    -0.388 -0.3684  0.8557  0.3634
              Bcc     0.0053     2.817     1.005     0.940  0.9294  0.3489  0.1207
 
              Baa    -0.0020    -1.091    -0.389    -0.364  0.0155  0.9923  0.1230
    11 H(1)   Bbb    -0.0018    -0.940    -0.336    -0.314 -0.3833 -0.1077  0.9173
              Bcc     0.0038     2.032     0.725     0.678  0.9235 -0.0614  0.3786
 
              Baa    -0.0699   -37.290   -13.306   -12.439  0.8810 -0.4533 -0.1353
    12 H(1)   Bbb    -0.0034    -1.801    -0.643    -0.601  0.3298  0.3834  0.8627
              Bcc     0.0733    39.091    13.949    13.039  0.3392  0.8047 -0.4872
 
              Baa    -0.0716   -38.228   -13.641   -12.751  0.8441  0.3802 -0.3780
    13 H(1)   Bbb    -0.0035    -1.853    -0.661    -0.618  0.3383  0.1692  0.9257
              Bcc     0.0751    40.081    14.302    13.370 -0.4159  0.9093 -0.0142
 

 ---------------------------------------------------------------------------------

 No NMR shielding tensors so no spin-rotation constants.
 Leave Link  601 at Mon Mar 11 01:39:35 2019, MaxMem=   671088640 cpu:               8.1 elap:               0.4
 (Enter /shared/centos7/gaussian/g16/l9999.exe)
 1\1\GINC-C0207\Scan\UM062X\6-311+G(2df,2p)\C4H7O2(2)\UNDERKOFFLER.C\11
 -Mar-2019\0\\#p m062x/6-311+g(2df,2p) Opt=(CalcFC,ModRedun)\\Gaussian 
 Input Prepared from Scan Object\\0,2\O,1.1719921287,-0.2719922213,-0.2
 119383992\O,1.6232740708,-2.3814536682,0.4156477328\C,-0.4326832453,-1
 .9115724562,-0.7574792807\C,-1.5883170286,-1.3153427451,0.050449409\C,
 0.8930291208,-1.6030638065,-0.1227386304\C,2.3345399059,0.1785505265,0
 .3290150183\H,-0.4341973782,-1.5012316367,-1.7675826411\H,-0.514312665
 8,-2.9936903746,-0.8181989981\H,-2.5394996491,-1.5638930903,-0.4158366
 817\H,-1.5040658467,-0.2317777342,0.1031142375\H,-1.5937594466,-1.7109
 609397,1.0652089047\H,2.9218634797,-0.4997530315,0.9216764182\H,2.4395
 409009,1.2471713785,0.3087170952\\Version=EM64L-G16RevA.03\State=2-A\H
 F=-307.0074267,-307.0073884,-307.0072957,-307.0071678,-307.0070271,-30
 7.0069019,-307.0068194,-307.006803,-307.0068515,-307.006948,-307.00706
 88,-307.0071972,-307.0073128,-307.0073996,-307.0074432,-307.0074242,-3
 07.0073467,-307.0072311,-307.0071635,-307.0072852,-307.0076059,-307.00
 80318,-307.0084612,-307.0088085,-307.0090213,-307.0090799,-307.008975,
 -307.0087209,-307.008363,-307.007953,-307.007568,-307.0072788,-307.007
 1535,-307.0071942,-307.007305,-307.0073916,-307.0074267\S2=0.75487,0.7
 54862,0.754869,0.754885,0.754907,0.754928,0.754944,0.754948,0.754941,0
 .754928,0.754908,0.754887,0.75487,0.75486,0.754861,0.754867,0.754882,0
 .754909,0.75494,0.754953,0.75494,0.754908,0.754875,0.754845,0.754824,0
 .754825,0.754829,0.754843,0.754873,0.754906,0.754937,0.754952,0.75495,
 0.754931,0.754903,0.754885,0.75487\S2-1=0.,0.,0.,0.,0.,0.,0.,0.,0.,0.,
 0.,0.,0.,0.,0.,0.,0.,0.,0.,0.,0.,0.,0.,0.,0.,0.,0.,0.,0.,0.,0.,0.,0.,0
 .,0.,0.,0.\S2A=0.750018,0.750018,0.750018,0.750019,0.750019,0.750019,0
 .750019,0.750019,0.750019,0.750019,0.750019,0.750019,0.750018,0.750018
 ,0.750018,0.750018,0.750019,0.750019,0.750019,0.750019,0.750019,0.7500
 19,0.750019,0.750018,0.750018,0.750018,0.750018,0.750018,0.750018,0.75
 0019,0.750019,0.750019,0.750019,0.750019,0.750019,0.750019,0.750019\RM
 SD=8.083e-09,4.542e-09,4.848e-09,5.188e-09,2.385e-09,5.254e-09,4.259e-
 09,6.437e-09,3.455e-09,2.425e-09,7.920e-09,9.079e-09,8.179e-09,6.528e-
 09,5.040e-09,2.353e-09,3.984e-09,9.413e-09,6.667e-09,2.828e-09,4.292e-
 09,7.654e-09,5.930e-09,7.742e-09,6.252e-09,8.444e-09,2.394e-09,6.351e-
 09,2.457e-09,4.261e-09,7.596e-09,4.846e-09,3.097e-09,3.687e-09,3.301e-
 09,6.266e-09,4.251e-09\PG=C01 [X(C4H7O2)]\\@


 IT IS WELL TO REMEMBER THAT MAN IS A PART OF NATURE AND THAT HIS WORKS,
 WHATEVER THEY MAY BE, ARE NO MORE "UNNATURAL" THAN 
 THE FLIGHT OF AN EAGLE OR THE PASSAGE OF A TORNADO.

                                    -- CHARLES MCCARRY IN "THE GREAT SOUTHWEST"
 Job cpu time:       1 days  7 hours  8 minutes 38.1 seconds.
 Elapsed time:       0 days  1 hours 34 minutes  5.9 seconds.
 File lengths (MBytes):  RWF=   1392 Int=      0 D2E=      0 Chk=     32 Scr=     32
 Normal termination of Gaussian 16 at Mon Mar 11 01:39:35 2019.
