 Entering Gaussian System, Link 0=g16
 Input=TVFRQKHUZDMLDB-UHFFFAOYSA-N_36by10.0_tor03_a1.com
 Output=TVFRQKHUZDMLDB-UHFFFAOYSA-N_36by10.0_tor03_a1.log
 Initial command:
 /shared/centos7/gaussian/g16/l1.exe "/scratch/underkoffler.c/gaussian_scratch/Gau-11969.inp" -scrdir="/scratch/underkoffler.c/gaussian_scratch/"
 Entering Link 1 = /shared/centos7/gaussian/g16/l1.exe PID=     11970.
  
 Copyright (c) 1988,1990,1992,1993,1995,1998,2003,2009,2016,
            Gaussian, Inc.  All Rights Reserved.
  
 This is part of the Gaussian(R) 16 program.  It is based on
 the Gaussian(R) 09 system (copyright 2009, Gaussian, Inc.),
 the Gaussian(R) 03 system (copyright 2003, Gaussian, Inc.),
 the Gaussian(R) 98 system (copyright 1998, Gaussian, Inc.),
 the Gaussian(R) 94 system (copyright 1995, Gaussian, Inc.),
 the Gaussian 92(TM) system (copyright 1992, Gaussian, Inc.),
 the Gaussian 90(TM) system (copyright 1990, Gaussian, Inc.),
 the Gaussian 88(TM) system (copyright 1988, Gaussian, Inc.),
 the Gaussian 86(TM) system (copyright 1986, Carnegie Mellon
 University), and the Gaussian 82(TM) system (copyright 1983,
 Carnegie Mellon University). Gaussian is a federally registered
 trademark of Gaussian, Inc.
  
 This software contains proprietary and confidential information,
 including trade secrets, belonging to Gaussian, Inc.
  
 This software is provided under written license and may be
 used, copied, transmitted, or stored only in accord with that
 written license.
  
 The following legend is applicable only to US Government
 contracts under FAR:
  
                    RESTRICTED RIGHTS LEGEND
  
 Use, reproduction and disclosure by the US Government is
 subject to restrictions as set forth in subparagraphs (a)
 and (c) of the Commercial Computer Software - Restricted
 Rights clause in FAR 52.227-19.
  
 Gaussian, Inc.
 340 Quinnipiac St., Bldg. 40, Wallingford CT 06492
  
  
 ---------------------------------------------------------------
 Warning -- This program may not be used in any manner that
 competes with the business of Gaussian, Inc. or will provide
 assistance to any competitor of Gaussian, Inc.  The licensee
 of this program is prohibited from giving any competitor of
 Gaussian, Inc. access to this program.  By using this program,
 the user acknowledges that Gaussian, Inc. is engaged in the
 business of creating and licensing software in the field of
 computational chemistry and represents and warrants to the
 licensee that it is not a competitor of Gaussian, Inc. and that
 it will not use this program in any manner prohibited above.
 ---------------------------------------------------------------
  

 Cite this work as:
 Gaussian 16, Revision A.03,
 M. J. Frisch, G. W. Trucks, H. B. Schlegel, G. E. Scuseria, 
 M. A. Robb, J. R. Cheeseman, G. Scalmani, V. Barone, 
 G. A. Petersson, H. Nakatsuji, X. Li, M. Caricato, A. V. Marenich, 
 J. Bloino, B. G. Janesko, R. Gomperts, B. Mennucci, H. P. Hratchian, 
 J. V. Ortiz, A. F. Izmaylov, J. L. Sonnenberg, D. Williams-Young, 
 F. Ding, F. Lipparini, F. Egidi, J. Goings, B. Peng, A. Petrone, 
 T. Henderson, D. Ranasinghe, V. G. Zakrzewski, J. Gao, N. Rega, 
 G. Zheng, W. Liang, M. Hada, M. Ehara, K. Toyota, R. Fukuda, 
 J. Hasegawa, M. Ishida, T. Nakajima, Y. Honda, O. Kitao, H. Nakai, 
 T. Vreven, K. Throssell, J. A. Montgomery, Jr., J. E. Peralta, 
 F. Ogliaro, M. J. Bearpark, J. J. Heyd, E. N. Brothers, K. N. Kudin, 
 V. N. Staroverov, T. A. Keith, R. Kobayashi, J. Normand, 
 K. Raghavachari, A. P. Rendell, J. C. Burant, S. S. Iyengar, 
 J. Tomasi, M. Cossi, J. M. Millam, M. Klene, C. Adamo, R. Cammi, 
 J. W. Ochterski, R. L. Martin, K. Morokuma, O. Farkas, 
 J. B. Foresman, and D. J. Fox, Gaussian, Inc., Wallingford CT, 2016.
 
 ******************************************
 Gaussian 16:  EM64L-G16RevA.03 25-Dec-2016
                11-Mar-2019 
 ******************************************
 %nprocshared=20
 Will use up to   20 processors via shared memory.
 %mem=5GB
 ----------------------------------------------
 #p m062x/6-311+g(2df,2p) Opt=(CalcFC,ModRedun)
 ----------------------------------------------
 1/10=4,18=120,19=15,26=3,38=1/1,3;
 2/9=110,12=2,17=6,18=5,40=1/2;
 3/5=4,6=6,7=214,11=2,25=1,30=1,71=2,74=-55,140=1/1,2,3;
 4//1;
 5/5=2,38=5/2;
 8/6=4,10=90,11=11/1;
 11/6=1,8=1,9=11,15=111,16=1/1,2,10;
 10/6=1,13=1/2;
 6/7=2,8=2,9=2,10=2,28=1/1;
 7/10=1,18=20,25=1/1,2,3,16;
 1/10=4,18=20,19=15,26=3/3(2);
 2/9=110/2;
 99//99;
 2/9=110/2;
 3/5=4,6=6,7=214,11=2,25=1,30=1,71=1,74=-55/1,2,3;
 4/5=5,16=3,69=1/1;
 5/5=2,38=5/2;
 7//1,2,3,16;
 1/18=20,19=15,26=3/3(-5);
 2/9=110/2;
 6/7=2,8=2,9=2,10=2,19=2,28=1/1;
 99/9=1/99;
 Leave Link    1 at Mon Mar 11 00:05:13 2019, MaxMem=   671088640 cpu:              33.7 elap:               1.8
 (Enter /shared/centos7/gaussian/g16/l101.exe)
 ----------------------------------------
 Gaussian Input Prepared from Scan Object
 ----------------------------------------
 Symbolic Z-matrix:
 Charge =  0 Multiplicity = 2
 O                    -0.77795  -0.11159  -0.62021 
 C                     0.40215  -0.66331  -0.05522 
 C                     1.15485   0.35998   0.7735 
 C                    -1.83594  -0.03098   0.2093 
 H                     1.00432  -0.99625  -0.89838 
 H                     0.13624  -1.54009   0.54203 
 H                     1.41841   1.22014   0.1601 
 H                     0.54998   0.70654   1.61064 
 H                     2.06964  -0.07837   1.1713 
 H                    -1.68017  -0.1604    1.27136 
 H                    -2.67073   0.52726  -0.17936 
 
 The following ModRedundant input section has been read:
 B       2       6 B                                                           
 B       1       4 B                                                           
 B       1       2 B                                                           
 B       2       5 B                                                           
 B       4      10 B                                                           
 B       3       7 B                                                           
 B       3       8 B                                                           
 B       2       3 B                                                           
 B       3       9 B                                                           
 B       4      11 B                                                           
 D       2       1       4      11 S  36 10.000                                
 
 Add atom      4 valence  3 ND=      2 dihedral       1      4     10     11
 ITRead=  0  0  0  0  0  0  0  0  0  0  0
 MicOpt= -1 -1 -1 -1 -1 -1 -1 -1 -1 -1 -1
 NAtoms=     11 NQM=       11 NQMF=       0 NMMI=      0 NMMIF=      0
                NMic=       0 NMicF=      0.
                    Isotopes and Nuclear Properties:
 (Nuclear quadrupole moments (NQMom) in fm**2, nuclear magnetic moments (NMagM)
  in nuclear magnetons)

  Atom         1           2           3           4           5           6           7           8           9          10
 IAtWgt=          16          12          12          12           1           1           1           1           1           1
 AtmWgt=  15.9949146  12.0000000  12.0000000  12.0000000   1.0078250   1.0078250   1.0078250   1.0078250   1.0078250   1.0078250
 NucSpn=           0           0           0           0           1           1           1           1           1           1
 AtZEff=  -0.0000000  -0.0000000  -0.0000000  -0.0000000  -0.0000000  -0.0000000  -0.0000000  -0.0000000  -0.0000000  -0.0000000
 NQMom=    0.0000000   0.0000000   0.0000000   0.0000000   0.0000000   0.0000000   0.0000000   0.0000000   0.0000000   0.0000000
 NMagM=    0.0000000   0.0000000   0.0000000   0.0000000   2.7928460   2.7928460   2.7928460   2.7928460   2.7928460   2.7928460
 AtZNuc=   8.0000000   6.0000000   6.0000000   6.0000000   1.0000000   1.0000000   1.0000000   1.0000000   1.0000000   1.0000000

  Atom        11
 IAtWgt=           1
 AtmWgt=   1.0078250
 NucSpn=           1
 AtZEff=  -0.0000000
 NQMom=    0.0000000
 NMagM=    2.7928460
 AtZNuc=   1.0000000
 Leave Link  101 at Mon Mar 11 00:05:13 2019, MaxMem=   671088640 cpu:               6.6 elap:               0.4
 (Enter /shared/centos7/gaussian/g16/l103.exe)

 GradGradGradGradGradGradGradGradGradGradGradGradGradGradGradGradGradGrad
 Berny optimization.
 Initialization pass.
                           ----------------------------
                           !    Initial Parameters    !
                           ! (Angstroms and Degrees)  !
 --------------------------                            --------------------------
 ! Name  Definition              Value          Derivative Info.                !
 --------------------------------------------------------------------------------
 ! R1    R(1,2)                  1.4199         calculate D2E/DX2 analytically  !
 ! R2    R(1,4)                  1.3468         calculate D2E/DX2 analytically  !
 ! R3    R(2,3)                  1.5167         calculate D2E/DX2 analytically  !
 ! R4    R(2,5)                  1.0883         calculate D2E/DX2 analytically  !
 ! R5    R(2,6)                  1.0937         calculate D2E/DX2 analytically  !
 ! R6    R(3,7)                  1.0889         calculate D2E/DX2 analytically  !
 ! R7    R(3,8)                  1.0894         calculate D2E/DX2 analytically  !
 ! R8    R(3,9)                  1.0896         calculate D2E/DX2 analytically  !
 ! R9    R(4,10)                 1.0812         calculate D2E/DX2 analytically  !
 ! R10   R(4,11)                 1.0768         calculate D2E/DX2 analytically  !
 ! A1    A(2,1,4)              115.534          calculate D2E/DX2 analytically  !
 ! A2    A(1,2,3)              111.574          calculate D2E/DX2 analytically  !
 ! A3    A(1,2,5)              105.6908         calculate D2E/DX2 analytically  !
 ! A4    A(1,2,6)              109.0692         calculate D2E/DX2 analytically  !
 ! A5    A(3,2,5)              110.8008         calculate D2E/DX2 analytically  !
 ! A6    A(3,2,6)              111.2941         calculate D2E/DX2 analytically  !
 ! A7    A(5,2,6)              108.2017         calculate D2E/DX2 analytically  !
 ! A8    A(2,3,7)              110.1995         calculate D2E/DX2 analytically  !
 ! A9    A(2,3,8)              111.0357         calculate D2E/DX2 analytically  !
 ! A10   A(2,3,9)              110.1642         calculate D2E/DX2 analytically  !
 ! A11   A(7,3,8)              108.4203         calculate D2E/DX2 analytically  !
 ! A12   A(7,3,9)              108.6788         calculate D2E/DX2 analytically  !
 ! A13   A(8,3,9)              108.2751         calculate D2E/DX2 analytically  !
 ! A14   A(1,4,10)             118.9905         calculate D2E/DX2 analytically  !
 ! A15   A(1,4,11)             114.6902         calculate D2E/DX2 analytically  !
 ! A16   A(10,4,11)            121.8894         calculate D2E/DX2 analytically  !
 ! D1    D(4,1,2,3)            -80.0108         calculate D2E/DX2 analytically  !
 ! D2    D(4,1,2,5)            159.4766         calculate D2E/DX2 analytically  !
 ! D3    D(4,1,2,6)             43.3472         calculate D2E/DX2 analytically  !
 ! D4    D(2,1,4,10)            13.9431         calculate D2E/DX2 analytically  !
 ! D5    D(2,1,4,11)           170.7913         Scan                            !
 ! D6    D(1,2,3,7)            -58.4317         calculate D2E/DX2 analytically  !
 ! D7    D(1,2,3,8)             61.7158         calculate D2E/DX2 analytically  !
 ! D8    D(1,2,3,9)           -178.3416         calculate D2E/DX2 analytically  !
 ! D9    D(5,2,3,7)             59.0395         calculate D2E/DX2 analytically  !
 ! D10   D(5,2,3,8)            179.187          calculate D2E/DX2 analytically  !
 ! D11   D(5,2,3,9)            -60.8704         calculate D2E/DX2 analytically  !
 ! D12   D(6,2,3,7)            179.4831         calculate D2E/DX2 analytically  !
 ! D13   D(6,2,3,8)            -60.3694         calculate D2E/DX2 analytically  !
 ! D14   D(6,2,3,9)             59.5732         calculate D2E/DX2 analytically  !
 ! D15   D(1,4,10,11)          155.1196         calculate D2E/DX2 analytically  !
 --------------------------------------------------------------------------------
 Trust Radius=3.00D-01 FncErr=1.00D-07 GrdErr=1.00D-06 EigMax=2.50D+02 EigMin=1.00D-04
 Number of optimizations in scan=  37
 Number of steps in this run=     51 maximum allowed number of steps=    100.
 GradGradGradGradGradGradGradGradGradGradGradGradGradGradGradGradGradGrad

 Leave Link  103 at Mon Mar 11 00:05:13 2019, MaxMem=   671088640 cpu:               0.2 elap:               0.0
 (Enter /shared/centos7/gaussian/g16/l202.exe)
                          Input orientation:                          
 ---------------------------------------------------------------------
 Center     Atomic      Atomic             Coordinates (Angstroms)
 Number     Number       Type             X           Y           Z
 ---------------------------------------------------------------------
      1          8           0       -0.777945   -0.111591   -0.620208
      2          6           0        0.402149   -0.663313   -0.055218
      3          6           0        1.154854    0.359978    0.773498
      4          6           0       -1.835935   -0.030980    0.209303
      5          1           0        1.004318   -0.996246   -0.898384
      6          1           0        0.136236   -1.540093    0.542025
      7          1           0        1.418412    1.220141    0.160097
      8          1           0        0.549983    0.706542    1.610638
      9          1           0        2.069638   -0.078366    1.171305
     10          1           0       -1.680170   -0.160405    1.271362
     11          1           0       -2.670735    0.527262   -0.179357
 ---------------------------------------------------------------------
                    Distance matrix (angstroms):
                    1          2          3          4          5
     1  O    0.000000
     2  C    1.419941   0.000000
     3  C    2.429096   1.516727   0.000000
     4  C    1.346821   2.340692   3.068547   0.000000
     5  H    2.009094   1.088292   2.158053   3.197771   0.000000
     6  H    2.055999   1.093688   2.168279   2.505510   1.767516
     7  H    2.684469   2.150942   1.088855   3.486905   2.490828
     8  H    2.722023   2.161813   1.089394   2.863614   3.066121
     9  H    3.364425   2.151056   1.089599   4.022586   2.502203
    10  H    2.096289   2.519679   2.925069   1.081195   3.551464
    11  H    2.045760   3.297801   3.946016   1.076838   4.042782
                    6          7          8          9         10
     6  H    0.000000
     7  H    3.067367   0.000000
     8  H    2.522002   1.766925   0.000000
     9  H    2.504134   1.769960   1.765913   0.000000
    10  H    2.394744   3.569598   2.416668   3.752040   0.000000
    11  H    3.559976   4.161302   3.689071   4.966106   1.886449
                   11
    11  H    0.000000
 Stoichiometry    C3H7O(2)
 Framework group  C1[X(C3H7O)]
 Deg. of freedom    27
 Full point group                 C1      NOp   1
 Largest Abelian subgroup         C1      NOp   1
 Largest concise Abelian subgroup C1      NOp   1
                         Standard orientation:                         
 ---------------------------------------------------------------------
 Center     Atomic      Atomic             Coordinates (Angstroms)
 Number     Number       Type             X           Y           Z
 ---------------------------------------------------------------------
      1          8           0       -0.716470   -0.483324   -0.365337
      2          6           0        0.537418   -0.600793    0.290560
      3          6           0        1.494626    0.495847   -0.135578
      4          6           0       -1.559590    0.430000    0.153234
      5          1           0        0.923665   -1.579925    0.013983
      6          1           0        0.377184   -0.589873    1.372391
      7          1           0        1.648328    0.462997   -1.213029
      8          1           0        1.104934    1.478756    0.126740
      9          1           0        2.457270    0.366997    0.358325
     10          1           0       -1.176709    1.157432    0.855535
     11          1           0       -2.437633    0.619887   -0.440538
 ---------------------------------------------------------------------
 Rotational constants (GHZ):          17.7918392           5.3719997           4.7534757
 Leave Link  202 at Mon Mar 11 00:05:13 2019, MaxMem=   671088640 cpu:               2.7 elap:               0.2
 (Enter /shared/centos7/gaussian/g16/l301.exe)
 Standard basis: 6-311+G(2df,2p) (5D, 7F)
 Ernie: Thresh=  0.10000D-02 Tol=  0.10000D-05 Strict=F.
 There are   219 symmetry adapted cartesian basis functions of A   symmetry.
 There are   199 symmetry adapted basis functions of A   symmetry.
   199 basis functions,   285 primitive gaussians,   219 cartesian basis functions
    17 alpha electrons       16 beta electrons
       nuclear repulsion energy       127.9491248034 Hartrees.
 IExCor= 4336 DFT=T Ex+Corr=M062X ExCW=0 ScaHFX=  0.540000
 ScaDFX=  1.000000  1.000000  1.000000  1.000000 ScalE2=  1.000000  1.000000
 IRadAn=      5 IRanWt=     -1 IRanGd=            0 ICorTp=0 IEmpDi=  4
 NAtoms=   11 NActive=   11 NUniq=   11 SFac= 1.00D+00 NAtFMM=   60 NAOKFM=F Big=F
 Integral buffers will be    131072 words long.
 Raffenetti 2 integral format.
 Two-electron integral symmetry is turned on.
 Leave Link  301 at Mon Mar 11 00:05:13 2019, MaxMem=   671088640 cpu:               1.4 elap:               0.1
 (Enter /shared/centos7/gaussian/g16/l302.exe)
 NPDir=0 NMtPBC=     1 NCelOv=     1 NCel=       1 NClECP=     1 NCelD=      1
         NCelK=      1 NCelE2=     1 NClLst=     1 CellRange=     0.0.
 One-electron integrals computed using PRISM.
 One-electron integral symmetry used in STVInt
 NBasis=   199 RedAO= T EigKep=  8.75D-05  NBF=   199
 NBsUse=   199 1.00D-06 EigRej= -1.00D+00 NBFU=   199
 Precomputing XC quadrature grid using
 IXCGrd= 4 IRadAn=           5 IRanWt=          -1 IRanGd=           0 AccXCQ= 0.00D+00.
 Generated NRdTot=       0 NPtTot=           0 NUsed=           0 NTot=          32
 NSgBfM=   219   219   219   219   219 MxSgAt=    11 MxSgA2=    11.
 Leave Link  302 at Mon Mar 11 00:05:14 2019, MaxMem=   671088640 cpu:               5.8 elap:               0.3
 (Enter /shared/centos7/gaussian/g16/l303.exe)
 DipDrv:  MaxL=1.
 Leave Link  303 at Mon Mar 11 00:05:14 2019, MaxMem=   671088640 cpu:               0.6 elap:               0.1
 (Enter /shared/centos7/gaussian/g16/l401.exe)
 ExpMin= 4.38D-02 ExpMax= 8.59D+03 ExpMxC= 1.30D+03 IAcc=3 IRadAn=         5 AccDes= 0.00D+00
 Harris functional with IExCor= 1009 and IRadAn=       5 diagonalized for initial guess.
 HarFok:  IExCor= 1009 AccDes= 0.00D+00 IRadAn=         5 IDoV= 1 UseB2=F ITyADJ=14
 ICtDFT=  3500011 ScaDFX=  1.000000  1.000000  1.000000  1.000000
 FoFCou: FMM=F IPFlag=           0 FMFlag=      100000 FMFlg1=           0
         NFxFlg=           0 DoJE=T BraDBF=F KetDBF=T FulRan=T
         wScrn=  0.000000 ICntrl=       500 IOpCl=  0 I1Cent=   200000004 NGrid=           0
         NMat0=    1 NMatS0=      1 NMatT0=    0 NMatD0=    1 NMtDS0=    0 NMtDT0=    0
 Petite list used in FoFCou.
 Harris En= -193.576541535408    
 JPrj=0 DoOrth=F DoCkMO=F.
 Initial guess <Sx>= 0.0000 <Sy>= 0.0000 <Sz>= 0.5000 <S**2>= 0.7500 S= 0.5000
 Leave Link  401 at Mon Mar 11 00:05:15 2019, MaxMem=   671088640 cpu:              17.9 elap:               0.9
 (Enter /shared/centos7/gaussian/g16/l502.exe)
 Keep R1 and R2 ints in memory in canonical form, NReq=416958841.
 FoFCou: FMM=F IPFlag=           0 FMFlag=           0 FMFlg1=           0
         NFxFlg=           0 DoJE=F BraDBF=F KetDBF=F FulRan=T
         wScrn=  0.000000 ICntrl=       600 IOpCl=  0 I1Cent=           0 NGrid=           0
         NMat0=    1 NMatS0=  19900 NMatT0=    0 NMatD0=    1 NMtDS0=    0 NMtDT0=    0
 Symmetry not used in FoFCou.
 Two-electron integral symmetry not used.
 UHF open shell SCF:
 Using DIIS extrapolation, IDIIS=  1040.
 NGot=   671088640 LenX=   274956345 LenY=   274907943
 Requested convergence on RMS density matrix=1.00D-08 within 128 cycles.
 Requested convergence on MAX density matrix=1.00D-06.
 Requested convergence on             energy=1.00D-06.
 No special actions if energy rises.

 Cycle   1  Pass 1  IDiag  1:
 E= -193.525914156658    
 DIIS: error= 2.07D-02 at cycle   1 NSaved=   1.
 NSaved= 1 IEnMin= 1 EnMin= -193.525914156658     IErMin= 1 ErrMin= 2.07D-02
 ErrMax= 2.07D-02  0.00D+00 EMaxC= 1.00D-01 BMatC= 6.05D-01 BMatP= 6.05D-01
 IDIUse=3 WtCom= 7.93D-01 WtEn= 2.07D-01
 Coeff-Com:  0.100D+01
 Coeff-En:   0.100D+01
 Coeff:      0.100D+01
 Gap=     0.221 Goal=   None    Shift=    0.000
 Gap=     0.425 Goal=   None    Shift=    0.000
 GapD=    0.221 DampG=1.000 DampE=0.500 DampFc=0.5000 IDamp=-1.
 Damping current iteration by 5.00D-01
 RMSDP=2.43D-03 MaxDP=1.13D-01              OVMax= 1.35D-01

 Cycle   2  Pass 1  IDiag  1:
 E= -193.592535251360     Delta-E=       -0.066621094701 Rises=F Damp=T
 DIIS: error= 4.87D-03 at cycle   2 NSaved=   2.
 NSaved= 2 IEnMin= 2 EnMin= -193.592535251360     IErMin= 2 ErrMin= 4.87D-03
 ErrMax= 4.87D-03  0.00D+00 EMaxC= 1.00D-01 BMatC= 4.86D-02 BMatP= 6.05D-01
 IDIUse=3 WtCom= 9.51D-01 WtEn= 4.87D-02
 Coeff-Com: -0.188D+00 0.119D+01
 Coeff-En:   0.000D+00 0.100D+01
 Coeff:     -0.178D+00 0.118D+01
 Gap=     0.242 Goal=   None    Shift=    0.000
 Gap=     0.403 Goal=   None    Shift=    0.000
 RMSDP=7.53D-04 MaxDP=3.68D-02 DE=-6.66D-02 OVMax= 6.88D-02

 Cycle   3  Pass 1  IDiag  1:
 E= -193.651586015582     Delta-E=       -0.059050764222 Rises=F Damp=F
 DIIS: error= 2.19D-03 at cycle   3 NSaved=   3.
 NSaved= 3 IEnMin= 3 EnMin= -193.651586015582     IErMin= 3 ErrMin= 2.19D-03
 ErrMax= 2.19D-03  0.00D+00 EMaxC= 1.00D-01 BMatC= 4.53D-03 BMatP= 4.86D-02
 IDIUse=3 WtCom= 9.78D-01 WtEn= 2.19D-02
 Coeff-Com: -0.845D-01 0.250D+00 0.835D+00
 Coeff-En:   0.000D+00 0.000D+00 0.100D+01
 Coeff:     -0.826D-01 0.244D+00 0.838D+00
 Gap=     0.243 Goal=   None    Shift=    0.000
 Gap=     0.370 Goal=   None    Shift=    0.000
 RMSDP=1.50D-04 MaxDP=5.33D-03 DE=-5.91D-02 OVMax= 8.66D-03

 Cycle   4  Pass 1  IDiag  1:
 E= -193.652651611904     Delta-E=       -0.001065596323 Rises=F Damp=F
 DIIS: error= 7.03D-04 at cycle   4 NSaved=   4.
 NSaved= 4 IEnMin= 4 EnMin= -193.652651611904     IErMin= 4 ErrMin= 7.03D-04
 ErrMax= 7.03D-04  0.00D+00 EMaxC= 1.00D-01 BMatC= 4.95D-04 BMatP= 4.53D-03
 IDIUse=3 WtCom= 9.93D-01 WtEn= 7.03D-03
 Coeff-Com: -0.181D-01 0.405D-01 0.268D+00 0.709D+00
 Coeff-En:   0.000D+00 0.000D+00 0.000D+00 0.100D+01
 Coeff:     -0.180D-01 0.403D-01 0.266D+00 0.711D+00
 Gap=     0.242 Goal=   None    Shift=    0.000
 Gap=     0.374 Goal=   None    Shift=    0.000
 RMSDP=4.83D-05 MaxDP=3.03D-03 DE=-1.07D-03 OVMax= 9.71D-03

 Cycle   5  Pass 1  IDiag  1:
 E= -193.652793410655     Delta-E=       -0.000141798751 Rises=F Damp=F
 DIIS: error= 3.94D-04 at cycle   5 NSaved=   5.
 NSaved= 5 IEnMin= 5 EnMin= -193.652793410655     IErMin= 5 ErrMin= 3.94D-04
 ErrMax= 3.94D-04  0.00D+00 EMaxC= 1.00D-01 BMatC= 1.69D-04 BMatP= 4.95D-04
 IDIUse=3 WtCom= 9.96D-01 WtEn= 3.94D-03
 Coeff-Com:  0.235D-02-0.141D-01 0.225D-01 0.355D+00 0.634D+00
 Coeff-En:   0.000D+00 0.000D+00 0.000D+00 0.000D+00 0.100D+01
 Coeff:      0.234D-02-0.140D-01 0.224D-01 0.354D+00 0.636D+00
 Gap=     0.243 Goal=   None    Shift=    0.000
 Gap=     0.373 Goal=   None    Shift=    0.000
 RMSDP=2.95D-05 MaxDP=1.27D-03 DE=-1.42D-04 OVMax= 2.66D-03

 Cycle   6  Pass 1  IDiag  1:
 E= -193.652842067238     Delta-E=       -0.000048656583 Rises=F Damp=F
 DIIS: error= 2.05D-04 at cycle   6 NSaved=   6.
 NSaved= 6 IEnMin= 6 EnMin= -193.652842067238     IErMin= 6 ErrMin= 2.05D-04
 ErrMax= 2.05D-04  0.00D+00 EMaxC= 1.00D-01 BMatC= 1.92D-05 BMatP= 1.69D-04
 IDIUse=3 WtCom= 9.98D-01 WtEn= 2.05D-03
 Coeff-Com:  0.620D-02-0.142D-01-0.825D-01-0.118D+00 0.567D-03 0.121D+01
 Coeff-En:   0.000D+00 0.000D+00 0.000D+00 0.000D+00 0.000D+00 0.100D+01
 Coeff:      0.618D-02-0.142D-01-0.823D-01-0.118D+00 0.566D-03 0.121D+01
 Gap=     0.244 Goal=   None    Shift=    0.000
 Gap=     0.374 Goal=   None    Shift=    0.000
 RMSDP=3.47D-05 MaxDP=1.53D-03 DE=-4.87D-05 OVMax= 4.98D-03

 Cycle   7  Pass 1  IDiag  1:
 E= -193.652862566332     Delta-E=       -0.000020499094 Rises=F Damp=F
 DIIS: error= 7.98D-05 at cycle   7 NSaved=   7.
 NSaved= 7 IEnMin= 7 EnMin= -193.652862566332     IErMin= 7 ErrMin= 7.98D-05
 ErrMax= 7.98D-05  0.00D+00 EMaxC= 1.00D-01 BMatC= 7.07D-06 BMatP= 1.92D-05
 IDIUse=1 WtCom= 1.00D+00 WtEn= 0.00D+00
 Coeff-Com:  0.156D-02-0.229D-02-0.348D-01-0.105D+00-0.164D+00 0.505D+00
 Coeff-Com:  0.800D+00
 Coeff:      0.156D-02-0.229D-02-0.348D-01-0.105D+00-0.164D+00 0.505D+00
 Coeff:      0.800D+00
 Gap=     0.244 Goal=   None    Shift=    0.000
 Gap=     0.374 Goal=   None    Shift=    0.000
 RMSDP=1.06D-05 MaxDP=4.31D-04 DE=-2.05D-05 OVMax= 1.84D-03

 Cycle   8  Pass 1  IDiag  1:
 E= -193.652866044242     Delta-E=       -0.000003477910 Rises=F Damp=F
 DIIS: error= 2.30D-05 at cycle   8 NSaved=   8.
 NSaved= 8 IEnMin= 8 EnMin= -193.652866044242     IErMin= 8 ErrMin= 2.30D-05
 ErrMax= 2.30D-05  0.00D+00 EMaxC= 1.00D-01 BMatC= 5.63D-07 BMatP= 7.07D-06
 IDIUse=1 WtCom= 1.00D+00 WtEn= 0.00D+00
 Coeff-Com: -0.113D-02 0.270D-02 0.109D-01 0.108D-01-0.319D-01-0.136D+00
 Coeff-Com:  0.106D+00 0.104D+01
 Coeff:     -0.113D-02 0.270D-02 0.109D-01 0.108D-01-0.319D-01-0.136D+00
 Coeff:      0.106D+00 0.104D+01
 Gap=     0.244 Goal=   None    Shift=    0.000
 Gap=     0.374 Goal=   None    Shift=    0.000
 RMSDP=4.03D-06 MaxDP=1.09D-04 DE=-3.48D-06 OVMax= 6.16D-04

 Cycle   9  Pass 1  IDiag  1:
 E= -193.652866421333     Delta-E=       -0.000000377092 Rises=F Damp=F
 DIIS: error= 7.22D-06 at cycle   9 NSaved=   9.
 NSaved= 9 IEnMin= 9 EnMin= -193.652866421333     IErMin= 9 ErrMin= 7.22D-06
 ErrMax= 7.22D-06  0.00D+00 EMaxC= 1.00D-01 BMatC= 5.59D-08 BMatP= 5.63D-07
 IDIUse=1 WtCom= 1.00D+00 WtEn= 0.00D+00
 Coeff-Com: -0.382D-03 0.772D-03 0.641D-02 0.157D-01 0.138D-01-0.875D-01
 Coeff-Com: -0.792D-01 0.185D+00 0.945D+00
 Coeff:     -0.382D-03 0.772D-03 0.641D-02 0.157D-01 0.138D-01-0.875D-01
 Coeff:     -0.792D-01 0.185D+00 0.945D+00
 Gap=     0.244 Goal=   None    Shift=    0.000
 Gap=     0.374 Goal=   None    Shift=    0.000
 RMSDP=1.09D-06 MaxDP=3.41D-05 DE=-3.77D-07 OVMax= 1.61D-04

 Cycle  10  Pass 1  IDiag  1:
 E= -193.652866452224     Delta-E=       -0.000000030890 Rises=F Damp=F
 DIIS: error= 2.56D-06 at cycle  10 NSaved=  10.
 NSaved=10 IEnMin=10 EnMin= -193.652866452224     IErMin=10 ErrMin= 2.56D-06
 ErrMax= 2.56D-06  0.00D+00 EMaxC= 1.00D-01 BMatC= 6.68D-09 BMatP= 5.59D-08
 IDIUse=1 WtCom= 1.00D+00 WtEn= 0.00D+00
 Coeff-Com:  0.690D-04-0.164D-03 0.111D-05 0.177D-02 0.377D-02 0.258D-03
 Coeff-Com: -0.219D-01-0.692D-01 0.156D+00 0.930D+00
 Coeff:      0.690D-04-0.164D-03 0.111D-05 0.177D-02 0.377D-02 0.258D-03
 Coeff:     -0.219D-01-0.692D-01 0.156D+00 0.930D+00
 Gap=     0.244 Goal=   None    Shift=    0.000
 Gap=     0.374 Goal=   None    Shift=    0.000
 RMSDP=4.01D-07 MaxDP=1.90D-05 DE=-3.09D-08 OVMax= 3.29D-05

 Cycle  11  Pass 1  IDiag  1:
 E= -193.652866454933     Delta-E=       -0.000000002709 Rises=F Damp=F
 DIIS: error= 1.22D-06 at cycle  11 NSaved=  11.
 NSaved=11 IEnMin=11 EnMin= -193.652866454933     IErMin=11 ErrMin= 1.22D-06
 ErrMax= 1.22D-06  0.00D+00 EMaxC= 1.00D-01 BMatC= 1.34D-09 BMatP= 6.68D-09
 IDIUse=1 WtCom= 1.00D+00 WtEn= 0.00D+00
 Coeff-Com:  0.771D-04-0.166D-03-0.899D-03-0.155D-02-0.124D-02 0.130D-01
 Coeff-Com:  0.421D-02-0.504D-01-0.885D-01 0.316D+00 0.809D+00
 Coeff:      0.771D-04-0.166D-03-0.899D-03-0.155D-02-0.124D-02 0.130D-01
 Coeff:      0.421D-02-0.504D-01-0.885D-01 0.316D+00 0.809D+00
 Gap=     0.244 Goal=   None    Shift=    0.000
 Gap=     0.374 Goal=   None    Shift=    0.000
 RMSDP=1.22D-07 MaxDP=4.39D-06 DE=-2.71D-09 OVMax= 1.00D-05

 Cycle  12  Pass 1  IDiag  1:
 E= -193.652866455390     Delta-E=       -0.000000000458 Rises=F Damp=F
 DIIS: error= 2.02D-07 at cycle  12 NSaved=  12.
 NSaved=12 IEnMin=12 EnMin= -193.652866455390     IErMin=12 ErrMin= 2.02D-07
 ErrMax= 2.02D-07  0.00D+00 EMaxC= 1.00D-01 BMatC= 4.84D-11 BMatP= 1.34D-09
 IDIUse=1 WtCom= 1.00D+00 WtEn= 0.00D+00
 Coeff-Com: -0.529D-05 0.105D-04-0.211D-04-0.969D-04-0.357D-03 0.305D-03
 Coeff-Com:  0.169D-02 0.418D-02-0.166D-01-0.714D-01 0.937D-02 0.107D+01
 Coeff:     -0.529D-05 0.105D-04-0.211D-04-0.969D-04-0.357D-03 0.305D-03
 Coeff:      0.169D-02 0.418D-02-0.166D-01-0.714D-01 0.937D-02 0.107D+01
 Gap=     0.244 Goal=   None    Shift=    0.000
 Gap=     0.374 Goal=   None    Shift=    0.000
 RMSDP=3.82D-08 MaxDP=9.74D-07 DE=-4.58D-10 OVMax= 2.53D-06

 Cycle  13  Pass 1  IDiag  1:
 E= -193.652866455417     Delta-E=       -0.000000000026 Rises=F Damp=F
 DIIS: error= 4.80D-08 at cycle  13 NSaved=  13.
 NSaved=13 IEnMin=13 EnMin= -193.652866455417     IErMin=13 ErrMin= 4.80D-08
 ErrMax= 4.80D-08  0.00D+00 EMaxC= 1.00D-01 BMatC= 2.33D-12 BMatP= 4.84D-11
 IDIUse=1 WtCom= 1.00D+00 WtEn= 0.00D+00
 Coeff-Com: -0.322D-05 0.702D-05 0.388D-04 0.731D-04 0.633D-04-0.609D-03
 Coeff-Com: -0.147D-03 0.216D-02 0.499D-02-0.148D-01-0.416D-01-0.452D-01
 Coeff-Com:  0.109D+01
 Coeff:     -0.322D-05 0.702D-05 0.388D-04 0.731D-04 0.633D-04-0.609D-03
 Coeff:     -0.147D-03 0.216D-02 0.499D-02-0.148D-01-0.416D-01-0.452D-01
 Coeff:      0.109D+01
 Gap=     0.244 Goal=   None    Shift=    0.000
 Gap=     0.374 Goal=   None    Shift=    0.000
 RMSDP=1.02D-08 MaxDP=2.97D-07 DE=-2.63D-11 OVMax= 7.08D-07

 Cycle  14  Pass 1  IDiag  1:
 E= -193.652866455414     Delta-E=        0.000000000003 Rises=F Damp=F
 DIIS: error= 1.02D-08 at cycle  14 NSaved=  14.
 NSaved=14 IEnMin=13 EnMin= -193.652866455417     IErMin=14 ErrMin= 1.02D-08
 ErrMax= 1.02D-08  0.00D+00 EMaxC= 1.00D-01 BMatC= 1.68D-13 BMatP= 2.33D-12
 IDIUse=1 WtCom= 1.00D+00 WtEn= 0.00D+00
 Coeff-Com:  0.723D-06-0.138D-05-0.333D-05-0.530D-05-0.529D-06 0.652D-04
 Coeff-Com: -0.623D-04-0.422D-03 0.245D-03 0.529D-02 0.425D-02-0.576D-01
 Coeff-Com: -0.107D+00 0.116D+01
 Coeff:      0.723D-06-0.138D-05-0.333D-05-0.530D-05-0.529D-06 0.652D-04
 Coeff:     -0.623D-04-0.422D-03 0.245D-03 0.529D-02 0.425D-02-0.576D-01
 Coeff:     -0.107D+00 0.116D+01
 Gap=     0.244 Goal=   None    Shift=    0.000
 Gap=     0.374 Goal=   None    Shift=    0.000
 RMSDP=2.95D-09 MaxDP=7.56D-08 DE= 2.73D-12 OVMax= 2.00D-07

 SCF Done:  E(UM062X) =  -193.652866455     A.U. after   14 cycles
            NFock= 14  Conv=0.30D-08     -V/T= 2.0038
 <Sx>= 0.0000 <Sy>= 0.0000 <Sz>= 0.5000 <S**2>= 0.7547 S= 0.5023
 <L.S>= 0.000000000000E+00
 KE= 1.929275924958D+02 PE=-7.076402867601D+02 EE= 1.931107030056D+02
 Annihilation of the first spin contaminant:
 S**2 before annihilation     0.7547,   after     0.7500
 Leave Link  502 at Mon Mar 11 00:05:57 2019, MaxMem=   671088640 cpu:             664.9 elap:              42.3
 (Enter /shared/centos7/gaussian/g16/l801.exe)
 DoSCS=F DFT=T ScalE2(SS,OS)=  1.000000  1.000000
 Range of M.O.s used for correlation:     1   199
 NBasis=   199 NAE=    17 NBE=    16 NFC=     0 NFV=     0
 NROrb=    199 NOA=    17 NOB=    16 NVA=   182 NVB=   183

 **** Warning!!: The largest alpha MO coefficient is  0.33599814D+02


 **** Warning!!: The largest beta MO coefficient is  0.35269037D+02

 Leave Link  801 at Mon Mar 11 00:05:57 2019, MaxMem=   671088640 cpu:               0.5 elap:               0.0
 (Enter /shared/centos7/gaussian/g16/l1101.exe)
 Using compressed storage, NAtomX=    11.
 Will process     12 centers per pass.
 Leave Link 1101 at Mon Mar 11 00:05:58 2019, MaxMem=   671088640 cpu:               6.9 elap:               0.4
 (Enter /shared/centos7/gaussian/g16/l1102.exe)
 Symmetrizing basis deriv contribution to polar:
 IMax=3 JMax=2 DiffMx= 0.00D+00
 Leave Link 1102 at Mon Mar 11 00:05:58 2019, MaxMem=   671088640 cpu:               0.7 elap:               0.1
 (Enter /shared/centos7/gaussian/g16/l1110.exe)
 Forming Gx(P) for the SCF density, NAtomX=    11.
 Integral derivatives from FoFJK, PRISM(SPDF).
 Do as many integral derivatives as possible in FoFJK.
 G2DrvN: MDV=     671087712.
 G2DrvN: will do    12 centers at a time, making    1 passes.
 Calling FoFCou, ICntrl=  3107 FMM=F I1Cent=   0 AccDes= 0.00D+00.
 FoFJK:  IHMeth= 1 ICntrl=    3107 DoSepK=F KAlg= 0 I1Cent=           0 FoldK=F
 IRaf=         0 NMat=       1 IRICut=       1 DoRegI=T DoRafI=F ISym2E= 0 IDoP0=0 IntGTp=1.
 FoFCou: FMM=F IPFlag=           0 FMFlag=      100000 FMFlg1=           0
         NFxFlg=           0 DoJE=F BraDBF=F KetDBF=F FulRan=T
         wScrn=  0.000000 ICntrl=      3107 IOpCl=  1 I1Cent=           0 NGrid=           0
         NMat0=    1 NMatS0=      1 NMatT0=    0 NMatD0=    1 NMtDS0=    0 NMtDT0=    0
 Symmetry not used in FoFCou.
 End of G2Drv F.D. properties file   721 does not exist.
 End of G2Drv F.D. properties file   722 does not exist.
 End of G2Drv F.D. properties file   788 does not exist.
 Leave Link 1110 at Mon Mar 11 00:07:05 2019, MaxMem=   671088640 cpu:            1341.0 elap:              67.1
 (Enter /shared/centos7/gaussian/g16/l1002.exe)
 Minotr:  UHF open shell wavefunction.
          IDoAtm=11111111111
          Direct CPHF calculation.
          Differentiating once with respect to nuclear coordinates.
          Requested convergence is 1.0D-08 RMS, and 1.0D-07 maximum.
          Secondary convergence is 1.0D-12 RMS, and 1.0D-12 maximum.
          NewPWx=T KeepS1=F KeepF1=F KeepIn=T MapXYZ=F SortEE=F KeepMc=T.
         3335 words used for storage of precomputed grid.
 Keep R1 and R2 ints in memory in canonical form, NReq=416899964.
 FoFCou: FMM=F IPFlag=           0 FMFlag=           0 FMFlg1=           0
         NFxFlg=           0 DoJE=F BraDBF=F KetDBF=F FulRan=T
         wScrn=  0.000000 ICntrl=       600 IOpCl=  0 I1Cent=           0 NGrid=           0
         NMat0=    1 NMatS0=  19900 NMatT0=    0 NMatD0=    1 NMtDS0=    0 NMtDT0=    0
 Symmetry not used in FoFCou.
 Two-electron integral symmetry not used.
          MDV=     671088640 using IRadAn=       1.
          Solving linear equations simultaneously, MaxMat=       0.
          There are    36 degrees of freedom in the 1st order CPHF.  IDoFFX=6 NUNeed=     0.
     30 vectors produced by pass  0 Test12= 1.67D-14 2.78D-09 XBig12= 1.35D-01 5.67D-02.
 AX will form    30 AO Fock derivatives at one time.
     30 vectors produced by pass  1 Test12= 1.67D-14 2.78D-09 XBig12= 7.22D-03 2.28D-02.
     30 vectors produced by pass  2 Test12= 1.67D-14 2.78D-09 XBig12= 3.37D-04 3.97D-03.
     30 vectors produced by pass  3 Test12= 1.67D-14 2.78D-09 XBig12= 5.44D-06 4.01D-04.
     30 vectors produced by pass  4 Test12= 1.67D-14 2.78D-09 XBig12= 8.65D-08 4.39D-05.
     30 vectors produced by pass  5 Test12= 1.67D-14 2.78D-09 XBig12= 1.15D-09 2.94D-06.
     28 vectors produced by pass  6 Test12= 1.67D-14 2.78D-09 XBig12= 9.55D-12 4.16D-07.
     10 vectors produced by pass  7 Test12= 1.67D-14 2.78D-09 XBig12= 6.85D-14 2.88D-08.
 InvSVY:  IOpt=1 It=  1 EMax= 1.78D-15
 Solved reduced A of dimension   218 with    30 vectors.
 End of Minotr F.D. properties file   721 does not exist.
 End of Minotr F.D. properties file   722 does not exist.
 End of Minotr F.D. properties file   788 does not exist.
 Leave Link 1002 at Mon Mar 11 00:08:34 2019, MaxMem=   671088640 cpu:            1781.8 elap:              89.1
 (Enter /shared/centos7/gaussian/g16/l601.exe)
 Copying SCF densities to generalized density rwf, IOpCl= 1 IROHF=0.

 **********************************************************************

            Population analysis using the SCF density.

 **********************************************************************

 Orbital symmetries:
 Alpha Orbitals:
       Occupied  (A) (A) (A) (A) (A) (A) (A) (A) (A) (A) (A) (A)
                 (A) (A) (A) (A) (A)
       Virtual   (A) (A) (A) (A) (A) (A) (A) (A) (A) (A) (A) (A)
                 (A) (A) (A) (A) (A) (A) (A) (A) (A) (A) (A) (A)
                 (A) (A) (A) (A) (A) (A) (A) (A) (A) (A) (A) (A)
                 (A) (A) (A) (A) (A) (A) (A) (A) (A) (A) (A) (A)
                 (A) (A) (A) (A) (A) (A) (A) (A) (A) (A) (A) (A)
                 (A) (A) (A) (A) (A) (A) (A) (A) (A) (A) (A) (A)
                 (A) (A) (A) (A) (A) (A) (A) (A) (A) (A) (A) (A)
                 (A) (A) (A) (A) (A) (A) (A) (A) (A) (A) (A) (A)
                 (A) (A) (A) (A) (A) (A) (A) (A) (A) (A) (A) (A)
                 (A) (A) (A) (A) (A) (A) (A) (A) (A) (A) (A) (A)
                 (A) (A) (A) (A) (A) (A) (A) (A) (A) (A) (A) (A)
                 (A) (A) (A) (A) (A) (A) (A) (A) (A) (A) (A) (A)
                 (A) (A) (A) (A) (A) (A) (A) (A) (A) (A) (A) (A)
                 (A) (A) (A) (A) (A) (A) (A) (A) (A) (A) (A) (A)
                 (A) (A) (A) (A) (A) (A) (A) (A) (A) (A) (A) (A)
                 (A) (A)
 Beta  Orbitals:
       Occupied  (A) (A) (A) (A) (A) (A) (A) (A) (A) (A) (A) (A)
                 (A) (A) (A) (A)
       Virtual   (A) (A) (A) (A) (A) (A) (A) (A) (A) (A) (A) (A)
                 (A) (A) (A) (A) (A) (A) (A) (A) (A) (A) (A) (A)
                 (A) (A) (A) (A) (A) (A) (A) (A) (A) (A) (A) (A)
                 (A) (A) (A) (A) (A) (A) (A) (A) (A) (A) (A) (A)
                 (A) (A) (A) (A) (A) (A) (A) (A) (A) (A) (A) (A)
                 (A) (A) (A) (A) (A) (A) (A) (A) (A) (A) (A) (A)
                 (A) (A) (A) (A) (A) (A) (A) (A) (A) (A) (A) (A)
                 (A) (A) (A) (A) (A) (A) (A) (A) (A) (A) (A) (A)
                 (A) (A) (A) (A) (A) (A) (A) (A) (A) (A) (A) (A)
                 (A) (A) (A) (A) (A) (A) (A) (A) (A) (A) (A) (A)
                 (A) (A) (A) (A) (A) (A) (A) (A) (A) (A) (A) (A)
                 (A) (A) (A) (A) (A) (A) (A) (A) (A) (A) (A) (A)
                 (A) (A) (A) (A) (A) (A) (A) (A) (A) (A) (A) (A)
                 (A) (A) (A) (A) (A) (A) (A) (A) (A) (A) (A) (A)
                 (A) (A) (A) (A) (A) (A) (A) (A) (A) (A) (A) (A)
                 (A) (A) (A)
 The electronic state is 2-A.
 Alpha  occ. eigenvalues --  -19.65463 -10.59212 -10.57418 -10.53251  -1.19432
 Alpha  occ. eigenvalues --   -0.87072  -0.77414  -0.68973  -0.58495  -0.57651
 Alpha  occ. eigenvalues --   -0.52683  -0.49295  -0.46423  -0.43566  -0.41026
 Alpha  occ. eigenvalues --   -0.39819  -0.22610
 Alpha virt. eigenvalues --    0.01820   0.03628   0.04090   0.04266   0.06802
 Alpha virt. eigenvalues --    0.07264   0.07826   0.08615   0.08893   0.11665
 Alpha virt. eigenvalues --    0.12258   0.14079   0.16806   0.19426   0.19580
 Alpha virt. eigenvalues --    0.22118   0.23108   0.24552   0.25425   0.25746
 Alpha virt. eigenvalues --    0.26495   0.28854   0.31668   0.32217   0.33773
 Alpha virt. eigenvalues --    0.35457   0.41404   0.44570   0.45945   0.47068
 Alpha virt. eigenvalues --    0.49221   0.52310   0.52915   0.54433   0.55130
 Alpha virt. eigenvalues --    0.57586   0.59026   0.60120   0.61504   0.62424
 Alpha virt. eigenvalues --    0.64758   0.65896   0.68515   0.71256   0.73185
 Alpha virt. eigenvalues --    0.76478   0.80565   0.81482   0.84529   0.86011
 Alpha virt. eigenvalues --    0.91790   0.92781   0.95152   1.00167   1.02584
 Alpha virt. eigenvalues --    1.05327   1.08135   1.09933   1.10910   1.14436
 Alpha virt. eigenvalues --    1.15144   1.16454   1.18120   1.21892   1.22884
 Alpha virt. eigenvalues --    1.25590   1.26992   1.28757   1.30434   1.33347
 Alpha virt. eigenvalues --    1.34287   1.38485   1.39882   1.43096   1.44280
 Alpha virt. eigenvalues --    1.47385   1.47679   1.50894   1.51702   1.57889
 Alpha virt. eigenvalues --    1.59181   1.62628   1.64889   1.69365   1.72069
 Alpha virt. eigenvalues --    1.91123   2.00881   2.14436   2.28910   2.30897
 Alpha virt. eigenvalues --    2.42916   2.43832   2.48126   2.54666   2.56652
 Alpha virt. eigenvalues --    2.59603   2.64007   2.81504   2.83387   2.84993
 Alpha virt. eigenvalues --    2.86580   2.93775   2.96352   2.98745   3.02477
 Alpha virt. eigenvalues --    3.04639   3.06259   3.07072   3.11858   3.13540
 Alpha virt. eigenvalues --    3.14768   3.15173   3.19408   3.22771   3.25731
 Alpha virt. eigenvalues --    3.27654   3.32670   3.33640   3.36513   3.42433
 Alpha virt. eigenvalues --    3.45811   3.46935   3.50434   3.55667   3.56082
 Alpha virt. eigenvalues --    3.59417   3.63101   3.65643   3.72545   3.75729
 Alpha virt. eigenvalues --    3.82429   3.85422   3.88448   3.92012   3.95745
 Alpha virt. eigenvalues --    3.97370   3.97774   3.98999   4.00284   4.08231
 Alpha virt. eigenvalues --    4.09319   4.13701   4.18222   4.22208   4.22318
 Alpha virt. eigenvalues --    4.24303   4.27575   4.31320   4.35588   4.44992
 Alpha virt. eigenvalues --    4.48845   4.49535   4.54959   4.55979   4.60260
 Alpha virt. eigenvalues --    4.65299   5.09223   5.14862   5.21247   5.28271
 Alpha virt. eigenvalues --    5.29952   5.41833   5.46441   5.52461   5.56105
 Alpha virt. eigenvalues --    5.58034   5.61711   5.71138   5.81936   5.89320
 Alpha virt. eigenvalues --    6.27674   6.44842   6.80301   7.11508   7.20705
 Alpha virt. eigenvalues --    7.29542   7.66651   7.71203  24.32869  24.46142
 Alpha virt. eigenvalues --   24.47891  50.16959
  Beta  occ. eigenvalues --  -19.65006 -10.59222 -10.56731 -10.53242  -1.17995
  Beta  occ. eigenvalues --   -0.86684  -0.75782  -0.67443  -0.57824  -0.56510
  Beta  occ. eigenvalues --   -0.50669  -0.48747  -0.45906  -0.43143  -0.39414
  Beta  occ. eigenvalues --   -0.38063
  Beta virt. eigenvalues --   -0.00674   0.01634   0.03557   0.03973   0.04321
  Beta virt. eigenvalues --    0.06813   0.07225   0.07941   0.08576   0.09071
  Beta virt. eigenvalues --    0.10929   0.12460   0.14002   0.16873   0.19419
  Beta virt. eigenvalues --    0.19704   0.21723   0.23453   0.25107   0.25645
  Beta virt. eigenvalues --    0.26150   0.26848   0.29044   0.31407   0.32255
  Beta virt. eigenvalues --    0.34274   0.35412   0.41398   0.44768   0.45923
  Beta virt. eigenvalues --    0.47784   0.50057   0.52303   0.53031   0.54456
  Beta virt. eigenvalues --    0.55339   0.57769   0.59336   0.61572   0.61691
  Beta virt. eigenvalues --    0.62797   0.64954   0.65602   0.68616   0.71596
  Beta virt. eigenvalues --    0.73441   0.76713   0.80443   0.81664   0.84959
  Beta virt. eigenvalues --    0.85780   0.91895   0.92966   0.95124   0.99841
  Beta virt. eigenvalues --    1.02610   1.05576   1.08030   1.09853   1.10931
  Beta virt. eigenvalues --    1.14461   1.15105   1.16537   1.18042   1.22116
  Beta virt. eigenvalues --    1.23063   1.25761   1.27138   1.28956   1.30901
  Beta virt. eigenvalues --    1.33450   1.34304   1.38732   1.39957   1.43798
  Beta virt. eigenvalues --    1.44448   1.47511   1.47885   1.50988   1.52624
  Beta virt. eigenvalues --    1.58234   1.59349   1.62660   1.65110   1.69631
  Beta virt. eigenvalues --    1.72335   1.92310   2.01374   2.14833   2.29356
  Beta virt. eigenvalues --    2.31821   2.43136   2.44320   2.48459   2.55100
  Beta virt. eigenvalues --    2.57266   2.60261   2.64715   2.83659   2.84586
  Beta virt. eigenvalues --    2.86803   2.87859   2.96080   2.98988   3.03048
  Beta virt. eigenvalues --    3.04608   3.06186   3.07922   3.08111   3.13258
  Beta virt. eigenvalues --    3.15508   3.15720   3.16292   3.23889   3.25787
  Beta virt. eigenvalues --    3.28986   3.29272   3.33776   3.34404   3.40568
  Beta virt. eigenvalues --    3.46086   3.46641   3.48972   3.52111   3.55963
  Beta virt. eigenvalues --    3.56968   3.60904   3.65741   3.67512   3.73461
  Beta virt. eigenvalues --    3.76997   3.82786   3.86321   3.88928   3.93373
  Beta virt. eigenvalues --    3.96041   3.98542   3.99466   4.00104   4.01435
  Beta virt. eigenvalues --    4.09474   4.10170   4.16711   4.21107   4.22419
  Beta virt. eigenvalues --    4.22593   4.24852   4.28553   4.33973   4.35763
  Beta virt. eigenvalues --    4.45196   4.48925   4.49972   4.55231   4.56232
  Beta virt. eigenvalues --    4.60471   4.67596   5.09456   5.18534   5.23374
  Beta virt. eigenvalues --    5.30081   5.31157   5.42542   5.47334   5.55923
  Beta virt. eigenvalues --    5.57198   5.59294   5.62609   5.71698   5.82419
  Beta virt. eigenvalues --    5.90279   6.28062   6.45107   6.80995   7.12576
  Beta virt. eigenvalues --    7.21936   7.30699   7.67103   7.71090  24.32869
  Beta virt. eigenvalues --   24.46777  24.48531  50.16644
          Condensed to atoms (all electrons):
               1          2          3          4          5          6
     1  O    8.113071   0.185308  -0.102176   0.063108  -0.058247  -0.029053
     2  C    0.185308   5.243364   0.155757  -0.117076   0.439792   0.449599
     3  C   -0.102176   0.155757   5.104968   0.021012  -0.032259  -0.065637
     4  C    0.063108  -0.117076   0.021012   5.492779   0.007980   0.002112
     5  H   -0.058247   0.439792  -0.032259   0.007980   0.526322  -0.024859
     6  H   -0.029053   0.449599  -0.065637   0.002112  -0.024859   0.524155
     7  H   -0.003171  -0.032941   0.419181   0.000054  -0.007324   0.005597
     8  H   -0.008856  -0.036204   0.413510   0.004131   0.005987  -0.007622
     9  H    0.009417  -0.038757   0.419283   0.000604  -0.003745  -0.001844
    10  H   -0.038914   0.001745   0.001976   0.411915  -0.000450  -0.002797
    11  H   -0.050592   0.004492  -0.001786   0.447940  -0.000132  -0.000277
               7          8          9         10         11
     1  O   -0.003171  -0.008856   0.009417  -0.038914  -0.050592
     2  C   -0.032941  -0.036204  -0.038757   0.001745   0.004492
     3  C    0.419181   0.413510   0.419283   0.001976  -0.001786
     4  C    0.000054   0.004131   0.000604   0.411915   0.447940
     5  H   -0.007324   0.005987  -0.003745  -0.000450  -0.000132
     6  H    0.005597  -0.007622  -0.001844  -0.002797  -0.000277
     7  H    0.530621  -0.031222  -0.026793   0.000404  -0.000051
     8  H   -0.031222   0.559207  -0.028753   0.000126   0.000231
     9  H   -0.026793  -0.028753   0.543211  -0.000189   0.000030
    10  H    0.000404   0.000126  -0.000189   0.514224  -0.031823
    11  H   -0.000051   0.000231   0.000030  -0.031823   0.472590
          Atomic-Atomic Spin Densities.
               1          2          3          4          5          6
     1  O    0.316619   0.024330  -0.009336  -0.253924  -0.001765  -0.007281
     2  C    0.024330   0.024157  -0.031755  -0.007239   0.007889   0.002752
     3  C   -0.009336  -0.031755   0.058535  -0.003415  -0.008737  -0.002594
     4  C   -0.253924  -0.007239  -0.003415   1.245860   0.001989   0.010048
     5  H   -0.001765   0.007889  -0.008737   0.001989  -0.000658   0.002158
     6  H   -0.007281   0.002752  -0.002594   0.010048   0.002158  -0.000823
     7  H   -0.001466  -0.005767   0.005876   0.001225   0.000236  -0.000354
     8  H   -0.001235   0.005152  -0.002778   0.001374  -0.000199  -0.000365
     9  H    0.000265   0.004237  -0.005265   0.000168  -0.000098   0.000011
    10  H    0.000635  -0.002983   0.003855  -0.009878  -0.000152  -0.001621
    11  H    0.000799   0.000044  -0.000578  -0.000068  -0.000015  -0.000103
               7          8          9         10         11
     1  O   -0.001466  -0.001235   0.000265   0.000635   0.000799
     2  C   -0.005767   0.005152   0.004237  -0.002983   0.000044
     3  C    0.005876  -0.002778  -0.005265   0.003855  -0.000578
     4  C    0.001225   0.001374   0.000168  -0.009878  -0.000068
     5  H    0.000236  -0.000199  -0.000098  -0.000152  -0.000015
     6  H   -0.000354  -0.000365   0.000011  -0.001621  -0.000103
     7  H   -0.000742   0.000459   0.000006   0.000132   0.000038
     8  H    0.000459  -0.007123   0.000538   0.001051   0.000092
     9  H    0.000006   0.000538  -0.000822  -0.000040  -0.000005
    10  H    0.000132   0.001051  -0.000040  -0.036225   0.004456
    11  H    0.000038   0.000092  -0.000005   0.004456  -0.040382
 Mulliken charges and spin densities:
               1          2
     1  O   -0.079897   0.067642
     2  C   -0.255080   0.020818
     3  C   -0.333829   0.003808
     4  C   -0.334559   0.986140
     5  H    0.146934   0.000648
     6  H    0.150625   0.001829
     7  H    0.145644  -0.000357
     8  H    0.129466  -0.003034
     9  H    0.127536  -0.001004
    10  H    0.143783  -0.040769
    11  H    0.159378  -0.035720
 Sum of Mulliken charges =  -0.00000   1.00000
 Mulliken charges and spin densities with hydrogens summed into heavy atoms:
               1          2
     1  O   -0.079897   0.067642
     2  C    0.042479   0.023294
     3  C    0.068816  -0.000587
     4  C   -0.031399   0.909651
 APT charges:
               1
     1  O   -0.061848
     2  C   -0.683165
     3  C   -1.049803
     4  C   -0.905220
     5  H    0.422228
     6  H    0.340550
     7  H    0.348089
     8  H    0.277551
     9  H    0.463418
    10  H    0.286893
    11  H    0.561308
 Sum of APT charges =  -0.00000
 APT charges with hydrogens summed into heavy atoms:
               1
     1  O   -0.061848
     2  C    0.079614
     3  C    0.039254
     4  C   -0.057019
 Electronic spatial extent (au):  <R**2>=            316.2458
 Charge=             -0.0000 electrons
 Dipole moment (field-independent basis, Debye):
    X=              1.3731    Y=              0.5452    Z=              0.6217  Tot=              1.6029
 Quadrupole moment (field-independent basis, Debye-Ang):
   XX=            -25.9167   YY=            -26.2336   ZZ=            -26.8567
   XY=             -1.9355   XZ=              0.6498   YZ=              0.0399
 Traceless Quadrupole moment (field-independent basis, Debye-Ang):
   XX=              0.4190   YY=              0.1021   ZZ=             -0.5210
   XY=             -1.9355   XZ=              0.6498   YZ=              0.0399
 Octapole moment (field-independent basis, Debye-Ang**2):
  XXX=             -0.4766  YYY=             -3.4280  ZZZ=             -2.0084  XYY=              0.9681
  XXY=              1.0524  XXZ=             -3.7567  XZZ=              1.5322  YZZ=             -0.3532
  YYZ=              0.6051  XYZ=             -0.0393
 Hexadecapole moment (field-independent basis, Debye-Ang**3):
 XXXX=           -279.9188 YYYY=            -90.8997 ZZZZ=            -56.9148 XXXY=             -5.2319
 XXXZ=             14.8834 YYYX=             -0.7393 YYYZ=              3.3523 ZZZX=              2.1945
 ZZZY=              0.5213 XXYY=            -64.8528 XXZZ=            -59.0364 YYZZ=            -25.4222
 XXYZ=              0.1602 YYXZ=             -0.6783 ZZXY=             -0.3089
 N-N= 1.279491248034D+02 E-N=-7.076402867749D+02  KE= 1.929275924958D+02
  Exact polarizability:   0.000   0.000   0.000   0.000   0.000   0.000
 Approx polarizability:  49.503  -2.284  45.944   0.123   0.338  45.809
                          Isotropic Fermi Contact Couplings
        Atom                 a.u.       MegaHertz       Gauss      10(-4) cm-1
     1  O(17)              0.04230     -25.63970      -9.14888      -8.55248
     2  C(13)             -0.00414      -4.65482      -1.66096      -1.55268
     3  C(13)              0.00271       3.05111       1.08871       1.01774
     4  C(13)              0.17654     198.46525      70.81734      66.20088
     5  H(1)               0.00022       0.99545       0.35520       0.33205
     6  H(1)               0.00097       4.35646       1.55449       1.45316
     7  H(1)               0.00003       0.12708       0.04535       0.04239
     8  H(1)               0.00010       0.45644       0.16287       0.15225
     9  H(1)              -0.00032      -1.41668      -0.50551      -0.47255
    10  H(1)              -0.01078     -48.18920     -17.19511     -16.07419
    11  H(1)              -0.01128     -50.43482     -17.99640     -16.82324
 --------------------------------------------------------
       Center         ----  Spin Dipole Couplings  ----
                      3XX-RR        3YY-RR        3ZZ-RR
 --------------------------------------------------------
     1   Atom       -0.216623      0.096654      0.119969
     2   Atom        0.015393     -0.008229     -0.007164
     3   Atom        0.003496      0.007668     -0.011164
     4   Atom       -0.236761      0.078129      0.158632
     5   Atom        0.005982     -0.000458     -0.005523
     6   Atom        0.007904     -0.006433     -0.001471
     7   Atom        0.004898     -0.003601     -0.001298
     8   Atom        0.008819     -0.002334     -0.006485
     9   Atom        0.004839     -0.002200     -0.002639
    10   Atom       -0.039900      0.015156      0.024744
    11   Atom        0.036671     -0.036948      0.000277
 --------------------------------------------------------
                        XY            XZ            YZ
 --------------------------------------------------------
     1   Atom        0.383413     -0.349549     -0.605171
     2   Atom       -0.006553      0.005808      0.001960
     3   Atom        0.007024     -0.000368      0.000414
     4   Atom        0.388723     -0.404448     -0.613262
     5   Atom       -0.008126      0.000669     -0.001436
     6   Atom       -0.005940      0.009288     -0.003149
     7   Atom        0.001181     -0.003861     -0.000693
     8   Atom        0.004315      0.000207      0.000853
     9   Atom        0.000245      0.001274     -0.000010
    10   Atom        0.046403      0.015463      0.030524
    11   Atom        0.001197      0.044103     -0.036378
 --------------------------------------------------------


 ---------------------------------------------------------------------------------
              Anisotropic Spin Dipole Couplings in Principal Axis System
 ---------------------------------------------------------------------------------

       Atom             a.u.   MegaHertz   Gauss  10(-4) cm-1        Axes

              Baa    -0.5085    36.798    13.130    12.274 -0.3668  0.7637  0.5313
     1 O(17)  Bbb    -0.4362    31.565    11.263    10.529  0.8363  0.0205  0.5479
              Bcc     0.9448   -68.363   -24.394   -22.803 -0.4075 -0.6453  0.6462
 
              Baa    -0.0125    -1.673    -0.597    -0.558  0.2996  0.7406 -0.6014
     2 C(13)  Bbb    -0.0057    -0.762    -0.272    -0.254 -0.0158  0.6341  0.7731
              Bcc     0.0181     2.435     0.869     0.812  0.9539 -0.2220  0.2017
 
              Baa    -0.0112    -1.502    -0.536    -0.501  0.0431 -0.0379  0.9983
     3 C(13)  Bbb    -0.0017    -0.230    -0.082    -0.077  0.8004 -0.5967 -0.0573
              Bcc     0.0129     1.732     0.618     0.578  0.5979  0.8015  0.0046
 
              Baa    -0.5015   -67.300   -24.014   -22.449 -0.5712  0.7458  0.3428
     4 C(13)  Bbb    -0.4880   -65.486   -23.367   -21.844  0.7076  0.2357  0.6661
              Bcc     0.9895   132.787    47.382    44.293 -0.4160 -0.6231  0.6624
 
              Baa    -0.0066    -3.539    -1.263    -1.181  0.3982  0.6698  0.6267
     5 H(1)   Bbb    -0.0050    -2.656    -0.948    -0.886 -0.4061 -0.4838  0.7752
              Bcc     0.0116     6.195     2.210     2.066  0.8225 -0.5632  0.0793
 
              Baa    -0.0086    -4.584    -1.636    -1.529  0.3841  0.9184 -0.0949
     6 H(1)   Bbb    -0.0071    -3.771    -1.345    -1.258 -0.4287  0.2685  0.8627
              Bcc     0.0157     8.355     2.981     2.787  0.8177 -0.2907  0.4968
 
              Baa    -0.0038    -2.026    -0.723    -0.676 -0.0396  0.9770  0.2096
     7 H(1)   Bbb    -0.0031    -1.670    -0.596    -0.557  0.4473 -0.1702  0.8781
              Bcc     0.0069     3.696     1.319     1.233  0.8935  0.1285 -0.4302
 
              Baa    -0.0067    -3.569    -1.273    -1.190  0.0550 -0.2442  0.9682
     8 H(1)   Bbb    -0.0036    -1.931    -0.689    -0.644 -0.3212  0.9138  0.2487
              Bcc     0.0103     5.499     1.962     1.834  0.9454  0.3246  0.0281
 
              Baa    -0.0029    -1.523    -0.543    -0.508 -0.1652  0.0765  0.9833
     9 H(1)   Bbb    -0.0022    -1.176    -0.420    -0.392 -0.0200  0.9965 -0.0809
              Bcc     0.0051     2.699     0.963     0.900  0.9860  0.0331  0.1631
 
              Baa    -0.0664   -35.407   -12.634   -11.811  0.8655 -0.5005  0.0208
    10 H(1)   Bbb    -0.0020    -1.071    -0.382    -0.357 -0.3230 -0.5259  0.7868
              Bcc     0.0684    36.479    13.016    12.168  0.3828  0.6877  0.6169
 
              Baa    -0.0658   -35.127   -12.534   -11.717 -0.2646  0.7594  0.5944
    11 H(1)   Bbb    -0.0042    -2.214    -0.790    -0.739  0.5667  0.6211 -0.5414
              Bcc     0.0700    37.341    13.324    12.456  0.7803 -0.1936  0.5947
 

 ---------------------------------------------------------------------------------

 No NMR shielding tensors so no spin-rotation constants.
 Leave Link  601 at Mon Mar 11 00:08:35 2019, MaxMem=   671088640 cpu:              10.4 elap:               0.6
 (Enter /shared/centos7/gaussian/g16/l701.exe)
 ... and contract with generalized density number  0.
 Compute integral second derivatives.
 Leave Link  701 at Mon Mar 11 00:08:35 2019, MaxMem=   671088640 cpu:               8.2 elap:               0.4
 (Enter /shared/centos7/gaussian/g16/l702.exe)
 L702 exits ... SP integral derivatives will be done elsewhere.
 Leave Link  702 at Mon Mar 11 00:08:35 2019, MaxMem=   671088640 cpu:               0.4 elap:               0.0
 (Enter /shared/centos7/gaussian/g16/l703.exe)
 Integral derivatives from FoFJK, PRISM(SPDF).
 Compute integral second derivatives, UseDBF=F ICtDFT=           0.
 Calling FoFJK, ICntrl=    100147 FMM=F ISym2X=0 I1Cent= 0 IOpClX= 1 NMat=1 NMatS=1 NMatT=0.
 FoFJK:  IHMeth= 1 ICntrl=  100147 DoSepK=F KAlg= 0 I1Cent=           0 FoldK=F
 IRaf=         0 NMat=       1 IRICut=       1 DoRegI=T DoRafI=F ISym2E= 0 IDoP0=0 IntGTp=1.
 FoFCou: FMM=F IPFlag=           0 FMFlag=      100000 FMFlg1=         800
         NFxFlg=           0 DoJE=F BraDBF=F KetDBF=F FulRan=T
         wScrn=  0.000000 ICntrl=    100147 IOpCl=  1 I1Cent=           0 NGrid=           0
         NMat0=    1 NMatS0=      1 NMatT0=    0 NMatD0=    1 NMtDS0=    0 NMtDT0=    0
 Symmetry not used in FoFCou.
 Leave Link  703 at Mon Mar 11 00:09:49 2019, MaxMem=   671088640 cpu:            1479.9 elap:              74.0
 (Enter /shared/centos7/gaussian/g16/l716.exe)
 Dipole        = 5.40235052D-01 2.14496437D-01 2.44584951D-01
 Polarizability= 0.00000000D+00 0.00000000D+00 0.00000000D+00
                 0.00000000D+00 0.00000000D+00 0.00000000D+00
 ***** Axes restored to original set *****
 -------------------------------------------------------------------
 Center     Atomic                   Forces (Hartrees/Bohr)
 Number     Number              X              Y              Z
 -------------------------------------------------------------------
      1        8          -0.000000526    0.000000060    0.000000425
      2        6          -0.000000141    0.000000106   -0.000000300
      3        6           0.000000168    0.000000104   -0.000000593
      4        6          -0.000000116   -0.000000263    0.000001013
      5        1          -0.000000567    0.000000318   -0.000000710
      6        1           0.000000305    0.000000002   -0.000000294
      7        1          -0.000000291    0.000000236   -0.000000627
      8        1           0.000000584   -0.000000091   -0.000000212
      9        1           0.000000443    0.000000184   -0.000001165
     10        1           0.000000509   -0.000000397    0.000000899
     11        1          -0.000000368   -0.000000259    0.000001565
 -------------------------------------------------------------------
 Cartesian Forces:  Max     0.000001565 RMS     0.000000539
 Force constants in Cartesian coordinates: 
                1             2             3             4             5 
      1  0.536314D+00
      2 -0.126953D+00  0.111035D+00
      3 -0.928878D-01 -0.529554D-01  0.338736D+00
      4 -0.170916D+00  0.493275D-01 -0.300615D-01  0.515689D+00
      5  0.589864D-01 -0.909496D-01  0.291003D-01  0.153035D-02  0.549025D+00
      6 -0.639662D-01  0.389249D-01 -0.115435D+00 -0.942332D-01 -0.125598D-01
      7 -0.353914D-01 -0.148224D-01 -0.258317D-01 -0.990715D-01 -0.386432D-01
      8  0.143183D-01  0.138290D-01  0.830999D-02 -0.459844D-01 -0.151648D+00
      9 -0.179437D-01 -0.421559D-02 -0.103109D-01 -0.238970D-01 -0.473711D-01
     10 -0.264438D+00  0.385604D-01  0.123990D+00 -0.488828D-01  0.843381D-02
     11  0.317594D-01 -0.165577D-01  0.200300D-01  0.191239D-01 -0.792356D-02
     12  0.168362D+00  0.134780D-01 -0.207529D+00 -0.311759D-02 -0.373445D-02
     13 -0.313172D-01  0.120271D-01  0.204582D-01 -0.122525D+00  0.405962D-01
     14  0.158306D-01 -0.430121D-02 -0.957924D-02  0.382717D-01 -0.744939D-01
     15 -0.137936D-01  0.658949D-02  0.141008D-01  0.122835D+00 -0.624456D-01
     16 -0.820503D-02  0.321368D-01 -0.214811D-01 -0.699045D-01 -0.590790D-01
     17  0.897126D-02 -0.129655D-01  0.116502D-01 -0.534656D-01 -0.209077D+00
     18 -0.699646D-02  0.160417D-01 -0.104453D-01  0.390564D-01  0.107897D+00
     19  0.202843D-02  0.968144D-03  0.743212D-03 -0.569281D-02 -0.147539D-01
     20  0.748739D-03  0.265998D-02  0.365402D-04 -0.522181D-02 -0.212231D-01
     21  0.207004D-02  0.603218D-03  0.102786D-02 -0.567288D-02 -0.176079D-01
     22  0.191145D-02  0.120717D-02  0.148054D-02  0.103078D-01 -0.591592D-02
     23 -0.391903D-03  0.128502D-02  0.222831D-02  0.160291D-01 -0.887276D-02
     24 -0.853347D-04  0.893230D-03  0.157771D-02  0.105534D-01 -0.649188D-02
     25 -0.312705D-02 -0.267295D-02 -0.215587D-02 -0.122930D-01  0.927138D-02
     26 -0.563237D-02 -0.216227D-02 -0.378856D-02 -0.178156D-01  0.112877D-01
     27 -0.465341D-02 -0.313023D-02 -0.150585D-02 -0.126129D-01  0.103302D-01
     28 -0.100064D-02 -0.266856D-02  0.335078D-01  0.265509D-02 -0.147954D-02
     29  0.280636D-02  0.472757D-03 -0.187164D-02 -0.811382D-03  0.106608D-02
     30  0.543969D-02 -0.171006D-02 -0.194930D-01 -0.410365D-02  0.213916D-02
     31 -0.258589D-01  0.128896D-01 -0.776167D-02  0.633687D-03  0.105342D-02
     32 -0.443934D-03 -0.234508D-02 -0.316048D-02 -0.983655D-03  0.280805D-02
     33  0.244543D-01 -0.145194D-01  0.927696D-02  0.125356D-02  0.743685D-03
                6             7             8             9            10 
      6  0.583117D+00
      7 -0.203818D-01  0.558407D+00
      8 -0.522051D-01 -0.361441D-01  0.542438D+00
      9 -0.115911D+00 -0.257685D-01 -0.367238D-01  0.554183D+00
     10  0.219261D-01  0.159417D-02 -0.168997D-02 -0.645950D-03  0.589944D+00
     11 -0.102506D-01 -0.189290D-02  0.660099D-03 -0.175604D-02 -0.209062D+00
     12  0.104557D-01 -0.481515D-02  0.361364D-02  0.278899D-04 -0.110694D-01
     13  0.111365D+00  0.113095D-01 -0.627368D-02 -0.145245D-01 -0.210984D-02
     14 -0.566174D-01  0.113942D-01 -0.719642D-02 -0.204138D-01 -0.423794D-03
     15 -0.221643D+00  0.881998D-02 -0.529729D-02 -0.139208D-01 -0.176150D-02
     16  0.458916D-01 -0.334224D-02 -0.132610D-01  0.958352D-02  0.522383D-02
     17  0.106232D+00 -0.809054D-02 -0.174124D-01  0.116465D-01 -0.236292D-02
     18 -0.127657D+00 -0.548890D-02 -0.169250D-01  0.118478D-01  0.240680D-02
     19  0.921771D-02 -0.629541D-01 -0.498545D-01  0.382559D-01 -0.676037D-03
     20  0.140678D-01 -0.510228D-01 -0.213935D+00  0.121585D+00  0.566785D-04
     21  0.117038D-01  0.384014D-01  0.123662D+00 -0.137808D+00  0.575132D-04
     22 -0.150096D-01 -0.132664D+00  0.475599D-01  0.117865D+00 -0.634661D-03
     23 -0.192268D-01  0.459558D-01 -0.736870D-01 -0.634076D-01  0.359491D-03
     24 -0.152016D-01  0.117012D+00 -0.631213D-01 -0.206344D+00  0.475514D-03
     25 -0.268985D-02 -0.237597D+00  0.915849D-01 -0.830444D-01  0.125542D-02
     26 -0.575112D-02  0.929372D-01 -0.928575D-01  0.399391D-01  0.625133D-03
     27 -0.603206D-02 -0.826652D-01  0.392750D-01 -0.821167D-01  0.113644D-02
     28  0.291465D-02 -0.297710D-03 -0.412185D-03 -0.428506D-04 -0.636016D-01
     29 -0.236460D-02  0.125620D-03  0.164471D-05  0.396509D-03  0.184916D-01
     30 -0.549804D-03  0.225311D-03 -0.351392D-03  0.835116D-04 -0.434777D-01
     31  0.496511D-02  0.671909D-05  0.156687D-03  0.162805D-03 -0.217675D+00
     32 -0.249280D-03  0.203067D-03 -0.191958D-03  0.320948D-03  0.147012D+00
     33 -0.284668D-02  0.492907D-03 -0.237074D-03  0.269431D-03 -0.930377D-01
               11            12            13            14            15 
     11  0.140053D+00
     12 -0.128552D+00  0.629038D+00
     13  0.367236D-02 -0.372807D-02  0.149232D+00
     14 -0.999650D-03  0.195555D-02 -0.497782D-01  0.785137D-01
     15  0.113629D-02 -0.395152D-03 -0.120724D+00  0.672829D-01  0.232700D+00
     16  0.102461D-02 -0.508562D-02 -0.302206D-02 -0.142136D-01  0.864406D-02
     17  0.936356D-03  0.216847D-02  0.139166D-02  0.937857D-02 -0.521487D-02
     18 -0.251921D-02  0.936140D-04  0.709850D-02  0.198512D-01 -0.124455D-01
     19  0.337412D-03  0.647323D-03  0.456091D-03  0.966796D-03 -0.187093D-03
     20 -0.433899D-04 -0.191895D-03  0.558587D-03  0.673418D-03  0.992331D-04
     21  0.203806D-03 -0.133430D-03  0.616054D-03  0.607520D-03  0.115407D-02
     22 -0.317086D-03 -0.105692D-03 -0.140670D-02 -0.264826D-02 -0.262281D-02
     23  0.826859D-04 -0.688233D-03 -0.327476D-02 -0.236160D-02 -0.231156D-02
     24  0.624179D-03 -0.666298D-03 -0.224992D-02 -0.264874D-02 -0.353773D-03
     25 -0.371285D-03 -0.112221D-02  0.483494D-03 -0.962119D-04 -0.245760D-03
     26  0.294338D-04 -0.117796D-02  0.921943D-03  0.752876D-03  0.212504D-03
     27  0.102586D-03 -0.115342D-02  0.774100D-03  0.339602D-03  0.363332D-04
     28  0.266673D-01 -0.590093D-01  0.102871D-03  0.192642D-03 -0.344209D-03
     29 -0.148053D-01  0.360493D-01  0.771568D-04 -0.275802D-03  0.130877D-03
     30  0.488038D-01 -0.329645D+00  0.676257D-04 -0.253998D-03  0.321952D-03
     31  0.129058D+00 -0.809566D-01 -0.120350D-02  0.504192D-03 -0.620731D-03
     32 -0.101432D+00  0.770799D-01  0.816182D-04  0.309987D-03 -0.181923D-03
     33  0.721777D-01 -0.100093D+00  0.846292D-03 -0.523525D-03  0.444956D-03
               16            17            18            19            20 
     16  0.791992D-01
     17  0.547068D-01  0.230039D+00
     18 -0.349942D-01 -0.122614D+00  0.138251D+00
     19 -0.770452D-03 -0.224109D-02 -0.229463D-02  0.638613D-01
     20 -0.211733D-02 -0.172271D-02 -0.348948D-02  0.579366D-01  0.233513D+00
     21 -0.280896D-02 -0.284164D-02 -0.170725D-02 -0.403313D-01 -0.131675D+00
     22  0.649626D-03  0.992981D-03  0.722577D-03 -0.468338D-02  0.230559D-02
     23  0.607969D-03  0.673331D-03  0.590578D-03 -0.151909D-01  0.941086D-02
     24 -0.545507D-03  0.435736D-03  0.784422D-03  0.985722D-02 -0.636544D-02
     25  0.210527D-03 -0.345525D-03  0.567138D-03  0.835213D-02 -0.319512D-02
     26  0.510955D-03  0.454461D-03  0.115883D-02  0.219987D-01 -0.928320D-02
     27  0.170762D-03 -0.729769D-04  0.603697D-03 -0.156343D-01  0.594603D-02
     28  0.895306D-04  0.296020D-03  0.784192D-04  0.129933D-03  0.744484D-05
     29 -0.972712D-05 -0.545218D-03  0.142199D-03 -0.873724D-04 -0.470655D-04
     30  0.508549D-03 -0.851565D-03  0.574672D-03 -0.145096D-03 -0.268186D-04
     31 -0.128403D-03  0.146939D-03 -0.155707D-03 -0.510965D-04 -0.565924D-04
     32 -0.306457D-03  0.240485D-03 -0.134694D-03 -0.798866D-04 -0.231807D-05
     33  0.116903D-03 -0.538336D-03  0.100422D-03 -0.129039D-03  0.142893D-04
               21            22            23            24            25 
     21  0.146206D+00
     22  0.429190D-02  0.142025D+00
     23  0.194510D-01 -0.497377D-01  0.782835D-01
     24 -0.136016D-01 -0.127950D+00  0.728349D-01  0.222334D+00
     25  0.338960D-02 -0.144012D-01  0.624914D-02 -0.688722D-02  0.256985D+00
     26  0.757074D-02  0.720335D-02 -0.483719D-02  0.417004D-02 -0.100706D+00
     27 -0.698291D-02  0.214633D-01 -0.993204D-02  0.107592D-01  0.921238D-01
     28 -0.224820D-04 -0.112712D-02 -0.540109D-03 -0.567550D-04  0.143775D-03
     29 -0.362914D-05 -0.686209D-03 -0.152894D-04 -0.315846D-03  0.219404D-03
     30  0.561176D-04 -0.277620D-03  0.147444D-03  0.565187D-03  0.453890D-04
     31  0.910487D-05  0.233376D-04 -0.661093D-04 -0.123234D-03 -0.119222D-04
     32  0.296403D-04  0.361393D-04  0.384397D-04 -0.148421D-04  0.619974D-04
     33  0.850260D-04  0.142575D-03  0.314032D-03  0.146116D-03  0.194255D-04
               26            27            28            29            30 
     26  0.966807D-01
     27 -0.426835D-01  0.859670D-01
     28  0.621298D-04 -0.277713D-04  0.607260D-01
     29 -0.993003D-04 -0.217808D-03 -0.206958D-01  0.142233D-01
     30  0.194612D-03  0.292038D-03  0.411389D-01 -0.450781D-01  0.350368D+00
     31 -0.105635D-03 -0.748024D-04  0.217987D-02  0.570298D-03  0.578675D-03
     32  0.344058D-04  0.430807D-04 -0.142937D-02  0.242054D-04 -0.301301D-02
     33  0.155263D-03  0.132620D-03 -0.181363D-01  0.131327D-01 -0.257438D-02
               31            32            33 
     31  0.242085D+00
     32 -0.144151D+00  0.100516D+00
     33  0.839771D-01 -0.707194D-01  0.950585D-01
 FormGI is forming the generalized inverse of G from B-inverse, IUseBI=4.
 Leave Link  716 at Mon Mar 11 00:09:49 2019, MaxMem=   671088640 cpu:               0.6 elap:               0.1
 (Enter /shared/centos7/gaussian/g16/l103.exe)

 GradGradGradGradGradGradGradGradGradGradGradGradGradGradGradGradGradGrad
 Berny optimization.
 Red2BG is reusing G-inverse.
 Internal  Forces:  Max     0.000000067 RMS     0.000000023
 Search for a local minimum.
 Step number   1 out of a maximum of   51 on scan point     1 out of    37
 All quantities printed in internal units (Hartrees-Bohrs-Radians)
 RMS Force = .18930D-07 SwitMx=.10000D-02 MixMth= 2
 Mixed Optimization -- En-DIIS/RFO-DIIS
 Second derivative matrix not updated -- analytic derivatives used.
 ITU=  0
     Eigenvalues ---    0.00229   0.00401   0.00686   0.04302   0.04429
     Eigenvalues ---    0.04836   0.06174   0.09852   0.10332   0.12240
     Eigenvalues ---    0.12368   0.13173   0.16361   0.16673   0.24068
     Eigenvalues ---    0.24525   0.30346   0.33175   0.34308   0.34412
     Eigenvalues ---    0.34528   0.35183   0.36281   0.37384   0.40001
     Eigenvalues ---    0.496391000.000001000.000001000.000001000.00000
     Eigenvalues --- 1000.000001000.000001000.000001000.000001000.00000
     Eigenvalues --- 1000.000001000.000001000.000001000.000001000.00000
     Eigenvalues --- 1000.00000
 RFO step:  Lambda= 0.00000000D+00 EMin= 2.28513267D-03
 Linear search not attempted -- first point.
 Iteration  1 RMS(Cart)=  0.00000415 RMS(Int)=  0.00000000
 Iteration  2 RMS(Cart)=  0.00000000 RMS(Int)=  0.00000000
 Iteration  1 RMS(Cart)=  0.00000000 RMS(Int)=  0.00000000
 ITry= 1 IFail=0 DXMaxC= 1.82D-05 DCOld= 1.00D+10 DXMaxT= 3.00D-01 DXLimC= 3.00D+00 Rises=F
 Variable       Old X    -DE/DX   Delta X   Delta X   Delta X     New X
                                 (Linear)    (Quad)   (Total)
    R1        2.68330  -0.00000   0.00000  -0.00000  -0.00000   2.68330
    R2        2.54512   0.00000   0.00000  -0.00000  -0.00000   2.54512
    R3        2.86620  -0.00000   0.00000  -0.00000  -0.00000   2.86620
    R4        2.05657   0.00000   0.00000   0.00000   0.00000   2.05657
    R5        2.06677  -0.00000   0.00000  -0.00000  -0.00000   2.06677
    R6        2.05764   0.00000   0.00000   0.00000   0.00000   2.05764
    R7        2.05866  -0.00000   0.00000   0.00000   0.00000   2.05866
    R8        2.05904  -0.00000   0.00000  -0.00000  -0.00000   2.05904
    R9        2.04316  -0.00000   0.00000  -0.00000  -0.00000   2.04316
   R10        2.03493   0.00000   0.00000  -0.00000  -0.00000   2.03493
    A1        2.01645   0.00000   0.00000  -0.00000  -0.00000   2.01645
    A2        1.94733  -0.00000   0.00000  -0.00000  -0.00000   1.94733
    A3        1.84465   0.00000   0.00000   0.00000   0.00000   1.84465
    A4        1.90362   0.00000   0.00000   0.00000   0.00000   1.90362
    A5        1.93384  -0.00000   0.00000   0.00000   0.00000   1.93384
    A6        1.94245   0.00000   0.00000   0.00000   0.00000   1.94245
    A7        1.88848  -0.00000   0.00000  -0.00000  -0.00000   1.88848
    A8        1.92334  -0.00000   0.00000  -0.00000  -0.00000   1.92334
    A9        1.93794   0.00000   0.00000  -0.00000  -0.00000   1.93794
   A10        1.92273   0.00000   0.00000   0.00000   0.00000   1.92273
   A11        1.89229   0.00000   0.00000  -0.00000  -0.00000   1.89229
   A12        1.89680   0.00000   0.00000   0.00000   0.00000   1.89680
   A13        1.88976  -0.00000   0.00000   0.00000   0.00000   1.88976
   A14        2.07678   0.00000   0.00000   0.00000   0.00000   2.07678
   A15        2.00172  -0.00000   0.00000   0.00000   0.00000   2.00172
   A16        2.12737   0.00000   0.00000   0.00000   0.00000   2.12737
    D1       -1.39645  -0.00000   0.00000  -0.00001  -0.00001  -1.39646
    D2        2.78339  -0.00000   0.00000  -0.00001  -0.00001   2.78338
    D3        0.75655  -0.00000   0.00000  -0.00001  -0.00001   0.75655
    D4        0.24335  -0.00000   0.00000  -0.00000  -0.00000   0.24335
    D5        2.98087  -0.00000   0.00000   0.00000  -0.00000   2.98087
    D6       -1.01983   0.00000   0.00000  -0.00000  -0.00000  -1.01983
    D7        1.07714  -0.00000   0.00000  -0.00000  -0.00000   1.07714
    D8       -3.11265   0.00000   0.00000  -0.00000  -0.00000  -3.11265
    D9        1.03043  -0.00000   0.00000  -0.00000  -0.00000   1.03043
   D10        3.12740  -0.00000   0.00000  -0.00000  -0.00000   3.12740
   D11       -1.06239  -0.00000   0.00000  -0.00000  -0.00000  -1.06239
   D12        3.13257   0.00000   0.00000  -0.00000  -0.00000   3.13257
   D13       -1.05364  -0.00000   0.00000  -0.00000  -0.00000  -1.05365
   D14        1.03975   0.00000   0.00000  -0.00000  -0.00000   1.03975
   D15        2.70735  -0.00000   0.00000   0.00000   0.00000   2.70735
         Item               Value     Threshold  Converged?
 Maximum Force            0.000000     0.000450     YES
 RMS     Force            0.000000     0.000300     YES
 Maximum Displacement     0.000018     0.001800     YES
 RMS     Displacement     0.000004     0.001200     YES
 Predicted change in Energy=-6.068017D-13
 Optimization completed.
    -- Stationary point found.
                           ----------------------------
                           !   Optimized Parameters   !
                           ! (Angstroms and Degrees)  !
 --------------------------                            --------------------------
 ! Name  Definition              Value          Derivative Info.                !
 --------------------------------------------------------------------------------
 ! R1    R(1,2)                  1.4199         -DE/DX =    0.0                 !
 ! R2    R(1,4)                  1.3468         -DE/DX =    0.0                 !
 ! R3    R(2,3)                  1.5167         -DE/DX =    0.0                 !
 ! R4    R(2,5)                  1.0883         -DE/DX =    0.0                 !
 ! R5    R(2,6)                  1.0937         -DE/DX =    0.0                 !
 ! R6    R(3,7)                  1.0889         -DE/DX =    0.0                 !
 ! R7    R(3,8)                  1.0894         -DE/DX =    0.0                 !
 ! R8    R(3,9)                  1.0896         -DE/DX =    0.0                 !
 ! R9    R(4,10)                 1.0812         -DE/DX =    0.0                 !
 ! R10   R(4,11)                 1.0768         -DE/DX =    0.0                 !
 ! A1    A(2,1,4)              115.534          -DE/DX =    0.0                 !
 ! A2    A(1,2,3)              111.574          -DE/DX =    0.0                 !
 ! A3    A(1,2,5)              105.6908         -DE/DX =    0.0                 !
 ! A4    A(1,2,6)              109.0692         -DE/DX =    0.0                 !
 ! A5    A(3,2,5)              110.8008         -DE/DX =    0.0                 !
 ! A6    A(3,2,6)              111.2941         -DE/DX =    0.0                 !
 ! A7    A(5,2,6)              108.2017         -DE/DX =    0.0                 !
 ! A8    A(2,3,7)              110.1995         -DE/DX =    0.0                 !
 ! A9    A(2,3,8)              111.0357         -DE/DX =    0.0                 !
 ! A10   A(2,3,9)              110.1642         -DE/DX =    0.0                 !
 ! A11   A(7,3,8)              108.4203         -DE/DX =    0.0                 !
 ! A12   A(7,3,9)              108.6788         -DE/DX =    0.0                 !
 ! A13   A(8,3,9)              108.2751         -DE/DX =    0.0                 !
 ! A14   A(1,4,10)             118.9905         -DE/DX =    0.0                 !
 ! A15   A(1,4,11)             114.6902         -DE/DX =    0.0                 !
 ! A16   A(10,4,11)            121.8894         -DE/DX =    0.0                 !
 ! D1    D(4,1,2,3)            -80.0108         -DE/DX =    0.0                 !
 ! D2    D(4,1,2,5)            159.4766         -DE/DX =    0.0                 !
 ! D3    D(4,1,2,6)             43.3472         -DE/DX =    0.0                 !
 ! D4    D(2,1,4,10)            13.9431         -DE/DX =    0.0                 !
 ! D5    D(2,1,4,11)           170.7913         -DE/DX =    0.0                 !
 ! D6    D(1,2,3,7)            -58.4317         -DE/DX =    0.0                 !
 ! D7    D(1,2,3,8)             61.7158         -DE/DX =    0.0                 !
 ! D8    D(1,2,3,9)           -178.3416         -DE/DX =    0.0                 !
 ! D9    D(5,2,3,7)             59.0395         -DE/DX =    0.0                 !
 ! D10   D(5,2,3,8)            179.187          -DE/DX =    0.0                 !
 ! D11   D(5,2,3,9)            -60.8704         -DE/DX =    0.0                 !
 ! D12   D(6,2,3,7)            179.4831         -DE/DX =    0.0                 !
 ! D13   D(6,2,3,8)            -60.3694         -DE/DX =    0.0                 !
 ! D14   D(6,2,3,9)             59.5732         -DE/DX =    0.0                 !
 ! D15   D(1,4,10,11)          155.1196         -DE/DX =    0.0                 !
 --------------------------------------------------------------------------------
 Lowest energy point so far.  Saving SCF results.
 Iteration  1 RMS(Cart)=  0.03361685 RMS(Int)=  0.01604913
 Iteration  2 RMS(Cart)=  0.00160307 RMS(Int)=  0.01596803
 Iteration  3 RMS(Cart)=  0.00002845 RMS(Int)=  0.01596801
 Iteration  4 RMS(Cart)=  0.00000118 RMS(Int)=  0.01596801
 Iteration  5 RMS(Cart)=  0.00000004 RMS(Int)=  0.01596801
 Iteration  1 RMS(Cart)=  0.01157098 RMS(Int)=  0.00552383
 Iteration  2 RMS(Cart)=  0.00400557 RMS(Int)=  0.00611889
 Iteration  3 RMS(Cart)=  0.00139037 RMS(Int)=  0.00656247
 Iteration  4 RMS(Cart)=  0.00048315 RMS(Int)=  0.00673862
 Iteration  5 RMS(Cart)=  0.00016796 RMS(Int)=  0.00680223
 Iteration  6 RMS(Cart)=  0.00005840 RMS(Int)=  0.00682463
 Iteration  7 RMS(Cart)=  0.00002031 RMS(Int)=  0.00683245
 Iteration  8 RMS(Cart)=  0.00000706 RMS(Int)=  0.00683517
 Iteration  9 RMS(Cart)=  0.00000245 RMS(Int)=  0.00683612
 Iteration 10 RMS(Cart)=  0.00000085 RMS(Int)=  0.00683645
 GradGradGradGradGradGradGradGradGradGradGradGradGradGradGradGradGradGrad

 Leave Link  103 at Mon Mar 11 00:09:49 2019, MaxMem=   671088640 cpu:               0.9 elap:               0.1
 (Enter /shared/centos7/gaussian/g16/l202.exe)
                          Input orientation:                          
 ---------------------------------------------------------------------
 Center     Atomic      Atomic             Coordinates (Angstroms)
 Number     Number       Type             X           Y           Z
 ---------------------------------------------------------------------
      1          8           0       -0.777483   -0.085390   -0.612342
      2          6           0        0.400100   -0.655116   -0.060099
      3          6           0        1.164550    0.349689    0.780424
      4          6           0       -1.831571   -0.008050    0.222433
[...]
 Alpha virt. eigenvalues --    0.76477   0.80562   0.81485   0.84531   0.86011
 Alpha virt. eigenvalues --    0.91792   0.92786   0.95153   1.00168   1.02587
 Alpha virt. eigenvalues --    1.05330   1.08135   1.09934   1.10907   1.14435
 Alpha virt. eigenvalues --    1.15140   1.16452   1.18118   1.21892   1.22886
 Alpha virt. eigenvalues --    1.25593   1.26984   1.28758   1.30434   1.33346
 Alpha virt. eigenvalues --    1.34289   1.38485   1.39881   1.43097   1.44282
 Alpha virt. eigenvalues --    1.47387   1.47680   1.50893   1.51704   1.57890
 Alpha virt. eigenvalues --    1.59185   1.62629   1.64892   1.69368   1.72074
 Alpha virt. eigenvalues --    1.91122   2.00883   2.14445   2.28912   2.30898
 Alpha virt. eigenvalues --    2.42917   2.43834   2.48123   2.54669   2.56657
 Alpha virt. eigenvalues --    2.59605   2.64011   2.81501   2.83384   2.84992
 Alpha virt. eigenvalues --    2.86579   2.93773   2.96351   2.98744   3.02486
 Alpha virt. eigenvalues --    3.04638   3.06260   3.07072   3.11860   3.13540
 Alpha virt. eigenvalues --    3.14767   3.15174   3.19411   3.22765   3.25727
 Alpha virt. eigenvalues --    3.27654   3.32671   3.33641   3.36516   3.42439
 Alpha virt. eigenvalues --    3.45809   3.46938   3.50437   3.55671   3.56079
 Alpha virt. eigenvalues --    3.59414   3.63105   3.65643   3.72550   3.75725
 Alpha virt. eigenvalues --    3.82429   3.85432   3.88449   3.92017   3.95747
 Alpha virt. eigenvalues --    3.97373   3.97779   3.99004   4.00289   4.08227
 Alpha virt. eigenvalues --    4.09318   4.13705   4.18221   4.22209   4.22318
 Alpha virt. eigenvalues --    4.24305   4.27575   4.31323   4.35589   4.44995
 Alpha virt. eigenvalues --    4.48845   4.49536   4.54963   4.55980   4.60259
 Alpha virt. eigenvalues --    4.65316   5.09221   5.14869   5.21248   5.28274
 Alpha virt. eigenvalues --    5.29959   5.41836   5.46448   5.52481   5.56109
 Alpha virt. eigenvalues --    5.58034   5.61717   5.71152   5.81943   5.89319
 Alpha virt. eigenvalues --    6.27685   6.44849   6.80311   7.11511   7.20714
 Alpha virt. eigenvalues --    7.29544   7.66649   7.71206  24.32873  24.46158
 Alpha virt. eigenvalues --   24.47899  50.16964
  Beta  occ. eigenvalues --  -19.65007 -10.59222 -10.56730 -10.53241  -1.17997
  Beta  occ. eigenvalues --   -0.86684  -0.75782  -0.67445  -0.57825  -0.56511
  Beta  occ. eigenvalues --   -0.50669  -0.48747  -0.45906  -0.43143  -0.39415
  Beta  occ. eigenvalues --   -0.38064
  Beta virt. eigenvalues --   -0.00674   0.01634   0.03557   0.03974   0.04320
  Beta virt. eigenvalues --    0.06813   0.07225   0.07941   0.08576   0.09071
  Beta virt. eigenvalues --    0.10928   0.12461   0.14003   0.16874   0.19419
  Beta virt. eigenvalues --    0.19706   0.21724   0.23454   0.25107   0.25645
  Beta virt. eigenvalues --    0.26149   0.26848   0.29044   0.31407   0.32255
  Beta virt. eigenvalues --    0.34275   0.35413   0.41397   0.44769   0.45923
  Beta virt. eigenvalues --    0.47784   0.50057   0.52303   0.53031   0.54455
  Beta virt. eigenvalues --    0.55341   0.57769   0.59337   0.61573   0.61692
  Beta virt. eigenvalues --    0.62798   0.64953   0.65602   0.68615   0.71601
  Beta virt. eigenvalues --    0.73446   0.76713   0.80439   0.81667   0.84961
  Beta virt. eigenvalues --    0.85781   0.91897   0.92971   0.95124   0.99842
  Beta virt. eigenvalues --    1.02612   1.05579   1.08030   1.09855   1.10928
  Beta virt. eigenvalues --    1.14460   1.15101   1.16535   1.18041   1.22116
  Beta virt. eigenvalues --    1.23065   1.25764   1.27131   1.28957   1.30901
  Beta virt. eigenvalues --    1.33449   1.34306   1.38731   1.39957   1.43798
  Beta virt. eigenvalues --    1.44450   1.47513   1.47886   1.50987   1.52628
  Beta virt. eigenvalues --    1.58235   1.59353   1.62661   1.65115   1.69634
  Beta virt. eigenvalues --    1.72341   1.92310   2.01376   2.14841   2.29357
  Beta virt. eigenvalues --    2.31822   2.43138   2.44321   2.48457   2.55101
  Beta virt. eigenvalues --    2.57271   2.60265   2.64720   2.83659   2.84584
  Beta virt. eigenvalues --    2.86803   2.87855   2.96080   2.98987   3.03049
  Beta virt. eigenvalues --    3.04616   3.06185   3.07922   3.08110   3.13264
  Beta virt. eigenvalues --    3.15507   3.15720   3.16293   3.23885   3.25781
  Beta virt. eigenvalues --    3.28986   3.29274   3.33775   3.34405   3.40570
  Beta virt. eigenvalues --    3.46092   3.46642   3.48974   3.52113   3.55967
  Beta virt. eigenvalues --    3.56965   3.60900   3.65746   3.67512   3.73466
  Beta virt. eigenvalues --    3.76992   3.82785   3.86330   3.88929   3.93378
  Beta virt. eigenvalues --    3.96041   3.98544   3.99470   4.00112   4.01443
  Beta virt. eigenvalues --    4.09471   4.10170   4.16715   4.21106   4.22420
  Beta virt. eigenvalues --    4.22594   4.24855   4.28553   4.33977   4.35764
  Beta virt. eigenvalues --    4.45199   4.48925   4.49973   4.55235   4.56234
  Beta virt. eigenvalues --    4.60469   4.67614   5.09455   5.18540   5.23377
  Beta virt. eigenvalues --    5.30083   5.31164   5.42545   5.47339   5.55934
  Beta virt. eigenvalues --    5.57205   5.59305   5.62616   5.71713   5.82427
  Beta virt. eigenvalues --    5.90278   6.28073   6.45114   6.81005   7.12579
  Beta virt. eigenvalues --    7.21946   7.30700   7.67101   7.71093  24.32872
  Beta virt. eigenvalues --   24.46786  24.48546  50.16648
          Condensed to atoms (all electrons):
               1          2          3          4          5          6
     1  O    8.113058   0.185344  -0.102198   0.063087  -0.058249  -0.029059
     2  C    0.185344   5.243292   0.155843  -0.117114   0.439790   0.449584
     3  C   -0.102198   0.155843   5.104891   0.021003  -0.032259  -0.065630
     4  C    0.063087  -0.117114   0.021003   5.492821   0.007985   0.002112
     5  H   -0.058249   0.439790  -0.032259   0.007985   0.526326  -0.024860
     6  H   -0.029059   0.449584  -0.065630   0.002112  -0.024860   0.524190
     7  H   -0.003176  -0.032950   0.419192   0.000057  -0.007327   0.005597
     8  H   -0.008863  -0.036198   0.413497   0.004147   0.005986  -0.007622
     9  H    0.009419  -0.038763   0.419289   0.000604  -0.003740  -0.001846
    10  H   -0.038913   0.001770   0.001958   0.411943  -0.000450  -0.002796
    11  H   -0.050573   0.004491  -0.001784   0.447952  -0.000132  -0.000276
               7          8          9         10         11
     1  O   -0.003176  -0.008863   0.009419  -0.038913  -0.050573
     2  C   -0.032950  -0.036198  -0.038763   0.001770   0.004491
     3  C    0.419192   0.413497   0.419289   0.001958  -0.001784
     4  C    0.000057   0.004147   0.000604   0.411943   0.447952
     5  H   -0.007327   0.005986  -0.003740  -0.000450  -0.000132
     6  H    0.005597  -0.007622  -0.001846  -0.002796  -0.000276
     7  H    0.530628  -0.031220  -0.026796   0.000404  -0.000051
     8  H   -0.031220   0.559202  -0.028751   0.000123   0.000231
     9  H   -0.026796  -0.028751   0.543218  -0.000189   0.000030
    10  H    0.000404   0.000123  -0.000189   0.514183  -0.031831
    11  H   -0.000051   0.000231   0.000030  -0.031831   0.472543
          Atomic-Atomic Spin Densities.
               1          2          3          4          5          6
     1  O    0.316641   0.024319  -0.009313  -0.253948  -0.001766  -0.007283
     2  C    0.024319   0.024090  -0.031684  -0.007244   0.007884   0.002735
     3  C   -0.009313  -0.031684   0.058480  -0.003434  -0.008733  -0.002586
     4  C   -0.253948  -0.007244  -0.003434   1.245901   0.001990   0.010051
     5  H   -0.001766   0.007884  -0.008733   0.001990  -0.000657   0.002160
     6  H   -0.007283   0.002735  -0.002586   0.010051   0.002160  -0.000812
     7  H   -0.001471  -0.005768   0.005875   0.001229   0.000235  -0.000355
     8  H   -0.001238   0.005146  -0.002766   0.001377  -0.000200  -0.000366
     9  H    0.000266   0.004241  -0.005270   0.000167  -0.000098   0.000011
    10  H    0.000633  -0.002954   0.003836  -0.009856  -0.000152  -0.001621
    11  H    0.000799   0.000047  -0.000580  -0.000056  -0.000015  -0.000103
               7          8          9         10         11
     1  O   -0.001471  -0.001238   0.000266   0.000633   0.000799
     2  C   -0.005768   0.005146   0.004241  -0.002954   0.000047
     3  C    0.005875  -0.002766  -0.005270   0.003836  -0.000580
     4  C    0.001229   0.001377   0.000167  -0.009856  -0.000056
     5  H    0.000235  -0.000200  -0.000098  -0.000152  -0.000015
     6  H   -0.000355  -0.000366   0.000011  -0.001621  -0.000103
     7  H   -0.000739   0.000459   0.000006   0.000132   0.000038
     8  H    0.000459  -0.007138   0.000538   0.001052   0.000093
     9  H    0.000006   0.000538  -0.000821  -0.000040  -0.000005
    10  H    0.000132   0.001052  -0.000040  -0.036275   0.004454
    11  H    0.000038   0.000093  -0.000005   0.004454  -0.040405
 Mulliken charges and spin densities:
               1          2
     1  O   -0.079878   0.067637
     2  C   -0.255089   0.020811
     3  C   -0.333803   0.003825
     4  C   -0.334598   0.986175
     5  H    0.146930   0.000649
     6  H    0.150606   0.001831
     7  H    0.145642  -0.000359
     8  H    0.129467  -0.003043
     9  H    0.127526  -0.001004
    10  H    0.143798  -0.040790
    11  H    0.159400  -0.035732
 Sum of Mulliken charges =  -0.00000   1.00000
 Mulliken charges and spin densities with hydrogens summed into heavy atoms:
               1          2
     1  O   -0.079878   0.067637
     2  C    0.042446   0.023291
     3  C    0.068833  -0.000581
     4  C   -0.031400   0.909653
 Electronic spatial extent (au):  <R**2>=            316.2380
 Charge=             -0.0000 electrons
 Dipole moment (field-independent basis, Debye):
    X=              1.3728    Y=              0.5450    Z=              0.6222  Tot=              1.6027
 Quadrupole moment (field-independent basis, Debye-Ang):
   XX=            -25.9165   YY=            -26.2340   ZZ=            -26.8561
   XY=             -1.9357   XZ=              0.6490   YZ=              0.0399
 Traceless Quadrupole moment (field-independent basis, Debye-Ang):
   XX=              0.4190   YY=              0.1015   ZZ=             -0.5206
   XY=             -1.9357   XZ=              0.6490   YZ=              0.0399
 Octapole moment (field-independent basis, Debye-Ang**2):
  XXX=             -0.4776  YYY=             -3.4293  ZZZ=             -2.0068  XYY=              0.9677
  XXY=              1.0541  XXZ=             -3.7551  XZZ=              1.5315  YZZ=             -0.3528
  YYZ=              0.6046  XYZ=             -0.0397
 Hexadecapole moment (field-independent basis, Debye-Ang**3):
 XXXX=           -279.9149 YYYY=            -90.8933 ZZZZ=            -56.9179 XXXY=             -5.2359
 XXXZ=             14.8802 YYYX=             -0.7390 YYYZ=              3.3505 ZZZX=              2.1923
 ZZZY=              0.5237 XXYY=            -64.8495 XXZZ=            -59.0325 YYZZ=            -25.4219
 XXYZ=              0.1615 YYXZ=             -0.6784 ZZXY=             -0.3105
 N-N= 1.279510318789D+02 E-N=-7.076441855992D+02  KE= 1.929278231730D+02
                          Isotropic Fermi Contact Couplings
        Atom                 a.u.       MegaHertz       Gauss      10(-4) cm-1
     1  O(17)              0.04230     -25.64174      -9.14961      -8.55317
     2  C(13)             -0.00414      -4.65626      -1.66147      -1.55316
     3  C(13)              0.00271       3.04824       1.08769       1.01678
     4  C(13)              0.17644     198.34793      70.77547      66.16175
     5  H(1)               0.00022       0.99749       0.35593       0.33273
     6  H(1)               0.00097       4.35282       1.55319       1.45194
     7  H(1)               0.00003       0.12862       0.04589       0.04290
     8  H(1)               0.00010       0.45505       0.16237       0.15179
     9  H(1)              -0.00032      -1.41589      -0.50523      -0.47229
    10  H(1)              -0.01079     -48.23181     -17.21031     -16.08840
    11  H(1)              -0.01129     -50.46126     -18.00583     -16.83206
 --------------------------------------------------------
       Center         ----  Spin Dipole Couplings  ----
                      3XX-RR        3YY-RR        3ZZ-RR
 --------------------------------------------------------
     1   Atom       -0.216581      0.097026      0.119554
     2   Atom        0.015390     -0.008229     -0.007161
     3   Atom        0.003491      0.007677     -0.011168
     4   Atom       -0.236639      0.078563      0.158076
     5   Atom        0.005981     -0.000458     -0.005523
     6   Atom        0.007903     -0.006434     -0.001469
     7   Atom        0.004898     -0.003601     -0.001297
     8   Atom        0.008823     -0.002335     -0.006489
     9   Atom        0.004839     -0.002200     -0.002639
    10   Atom       -0.039916      0.015127      0.024788
    11   Atom        0.036682     -0.036927      0.000245
 --------------------------------------------------------
                        XY            XZ            YZ
 --------------------------------------------------------
     1   Atom        0.383586     -0.349467     -0.605161
     2   Atom       -0.006555      0.005813      0.001959
     3   Atom        0.007022     -0.000367      0.000413
     4   Atom        0.388982     -0.404391     -0.613249
     5   Atom       -0.008126      0.000671     -0.001438
     6   Atom       -0.005939      0.009290     -0.003151
     7   Atom        0.001179     -0.003860     -0.000692
     8   Atom        0.004316      0.000206      0.000852
     9   Atom        0.000245      0.001275     -0.000010
    10   Atom        0.046394      0.015464      0.030530
    11   Atom        0.001186      0.044101     -0.036401
 --------------------------------------------------------


 ---------------------------------------------------------------------------------
              Anisotropic Spin Dipole Couplings in Principal Axis System
 ---------------------------------------------------------------------------------

       Atom             a.u.   MegaHertz   Gauss  10(-4) cm-1        Axes

              Baa    -0.5086    36.799    13.131    12.275 -0.3670  0.7635  0.5314
     1 O(17)  Bbb    -0.4362    31.566    11.264    10.529  0.8362  0.0205  0.5481
              Bcc     0.9448   -68.365   -24.394   -22.804 -0.4076 -0.6455  0.6459
 
              Baa    -0.0125    -1.674    -0.597    -0.558  0.2997  0.7407 -0.6013
     2 C(13)  Bbb    -0.0057    -0.762    -0.272    -0.254 -0.0160  0.6341  0.7731
              Bcc     0.0181     2.435     0.869     0.812  0.9539 -0.2221  0.2019
 
              Baa    -0.0112    -1.503    -0.536    -0.501  0.0431 -0.0379  0.9984
     3 C(13)  Bbb    -0.0017    -0.230    -0.082    -0.077  0.8007 -0.5963 -0.0572
              Bcc     0.0129     1.733     0.618     0.578  0.5975  0.8018  0.0047
 
              Baa    -0.5015   -67.303   -24.015   -22.450 -0.5714  0.7456  0.3429
     4 C(13)  Bbb    -0.4880   -65.489   -23.368   -21.845  0.7074  0.2356  0.6664
              Bcc     0.9896   132.792    47.383    44.295 -0.4161 -0.6233  0.6621
 
              Baa    -0.0066    -3.539    -1.263    -1.181  0.3981  0.6698  0.6268
     5 H(1)   Bbb    -0.0050    -2.656    -0.948    -0.886 -0.4063 -0.4839  0.7751
              Bcc     0.0116     6.195     2.211     2.066  0.8225 -0.5632  0.0795
 
              Baa    -0.0086    -4.584    -1.636    -1.529  0.3839  0.9185 -0.0944
     6 H(1)   Bbb    -0.0071    -3.771    -1.346    -1.258 -0.4290  0.2679  0.8626
              Bcc     0.0157     8.355     2.981     2.787  0.8177 -0.2907  0.4969
 
              Baa    -0.0038    -2.026    -0.723    -0.676 -0.0395  0.9770  0.2095
     7 H(1)   Bbb    -0.0031    -1.670    -0.596    -0.557  0.4473 -0.1702  0.8781
              Bcc     0.0069     3.696     1.319     1.233  0.8935  0.1284 -0.4303
 
              Baa    -0.0067    -3.570    -1.274    -1.191  0.0550 -0.2439  0.9682
     8 H(1)   Bbb    -0.0036    -1.931    -0.689    -0.644 -0.3211  0.9139  0.2484
              Bcc     0.0103     5.501     1.963     1.835  0.9455  0.3245  0.0281
 
              Baa    -0.0029    -1.523    -0.543    -0.508 -0.1654  0.0768  0.9832
     9 H(1)   Bbb    -0.0022    -1.176    -0.420    -0.392 -0.0200  0.9965 -0.0812
              Bcc     0.0051     2.699     0.963     0.900  0.9860  0.0331  0.1633
 
              Baa    -0.0664   -35.413   -12.636   -11.812  0.8655 -0.5005  0.0208
    10 H(1)   Bbb    -0.0020    -1.066    -0.381    -0.356 -0.3232 -0.5263  0.7865
              Bcc     0.0684    36.479    13.017    12.168  0.3827  0.6874  0.6173
 
              Baa    -0.0659   -35.135   -12.537   -11.720 -0.2645  0.7592  0.5946
    11 H(1)   Bbb    -0.0041    -2.208    -0.788    -0.737  0.5666  0.6213 -0.5412
              Bcc     0.0700    37.343    13.325    12.456  0.7803 -0.1938  0.5946
 

 ---------------------------------------------------------------------------------

 No NMR shielding tensors so no spin-rotation constants.
 Leave Link  601 at Mon Mar 11 01:55:18 2019, MaxMem=   671088640 cpu:               9.2 elap:               0.5
 (Enter /shared/centos7/gaussian/g16/l9999.exe)
 1\1\GINC-C0252\Scan\UM062X\6-311+G(2df,2p)\C3H7O1(2)\UNDERKOFFLER.C\11
 -Mar-2019\0\\#p m062x/6-311+g(2df,2p) Opt=(CalcFC,ModRedun)\\Gaussian 
 Input Prepared from Scan Object\\0,2\O,-0.6397666817,0.6479491841,-0.4
 389853275\C,0.3534298679,-0.36102269,-0.3309180846\C,1.1441907608,-0.2
 295037338,0.9566642635\C,-1.7708523914,0.4259786683,0.2576124912\H,1.0
 001085992,-0.2313919365,-1.1965857153\H,-0.1242577382,-1.3420663868,-0
 .4052233126\H,1.6192546468,0.7489130282,1.0078485049\H,0.4977182956,-0
 .3441392817,1.8259794482\H,1.9175146978,-0.9957264924,1.0024601951\H,-
 1.7781537179,-0.348155401,1.0123015374\H,-2.4483817081,1.2620940723,0.
 2939077144\\Version=EM64L-G16RevA.03\State=2-A\HF=-193.6528665,-193.65
 26694,-193.653351,-193.6526651,-193.6515797,-193.6502141,-193.6486963,
 -193.6471618,-193.6457765,-193.6448008,-193.6458194,-193.6474834,-193.
 6493832,-193.6511181,-193.6524401,-193.6532496,-193.6535597,-193.65345
 51,-193.6530723,-193.6527665,-193.6528572,-193.6528123,-193.6524836,-1
 93.6517985,-193.6507617,-193.6494353,-193.6478629,-193.6462436,-193.64
 50454,-193.6462191,-193.647591,-193.6489717,-193.6502374,-193.6513117,
 -193.652144,-193.6526794,-193.6528664\S2=0.754687,0.75468,0.754573,0.7
 5458,0.754597,0.754611,0.754614,0.754612,0.754642,0.754763,0.754405,0.
 754303,0.754297,0.754348,0.754418,0.754491,0.754565,0.754646,0.754733,
 0.754819,0.754717,0.754622,0.754526,0.75443,0.754335,0.754247,0.754186
 ,0.754198,0.754397,0.754737,0.754744,0.754758,0.75477,0.754771,0.75475
 4,0.754721,0.754687\S2-1=0.,0.,0.,0.,0.,0.,0.,0.,0.,0.,0.,0.,0.,0.,0.,
 0.,0.,0.,0.,0.,0.,0.,0.,0.,0.,0.,0.,0.,0.,0.,0.,0.,0.,0.,0.,0.,0.\S2A=
 0.750016,0.750016,0.750015,0.750015,0.750015,0.750015,0.750016,0.75001
 6,0.750016,0.750017,0.750015,0.750014,0.750014,0.750014,0.750014,0.750
 015,0.750015,0.750016,0.750017,0.750018,0.750017,0.750016,0.750015,0.7
 50014,0.750014,0.750013,0.750013,0.750013,0.750015,0.750017,0.750017,0
 .750017,0.750017,0.750017,0.750017,0.750016,0.750016\RMSD=2.950e-09,6.
 456e-09,4.793e-09,3.342e-09,9.535e-09,5.930e-09,3.277e-09,8.718e-09,5.
 972e-09,9.849e-09,4.046e-09,5.424e-09,9.160e-09,3.654e-09,2.177e-09,8.
 490e-09,9.402e-09,6.016e-09,6.418e-09,8.270e-09,5.887e-09,7.298e-09,7.
 109e-09,5.338e-09,9.043e-09,4.973e-09,9.169e-09,4.388e-09,2.049e-09,5.
 656e-09,8.067e-09,5.851e-09,6.461e-09,4.491e-09,2.415e-09,4.291e-09,3.
 657e-09\PG=C01 [X(C3H7O1)]\\@


 MOM AND DAD WENT TO ALPHA CENTAURI AND ALL
 I GOT WAS THIS DUMB T-SHIRT.
 Job cpu time:       1 days  5 hours 22 minutes 21.9 seconds.
 Elapsed time:       0 days  1 hours 49 minutes 49.7 seconds.
 File lengths (MBytes):  RWF=   1328 Int=      0 D2E=      0 Chk=     32 Scr=     32
 Normal termination of Gaussian 16 at Mon Mar 11 01:55:18 2019.
