 Entering Gaussian System, Link 0=g16
 Input=VSQGJBCHGBRHMO-UHFFFAOYSA-N_72by10.0_tor04_a1.com
 Output=VSQGJBCHGBRHMO-UHFFFAOYSA-N_72by10.0_tor04_a1.log
 Initial command:
 /shared/centos7/gaussian/g16/l1.exe "/scratch/underkoffler.c/gaussian_scratch/Gau-22074.inp" -scrdir="/scratch/underkoffler.c/gaussian_scratch/"
 Entering Link 1 = /shared/centos7/gaussian/g16/l1.exe PID=     22075.
  
 Copyright (c) 1988,1990,1992,1993,1995,1998,2003,2009,2016,
            Gaussian, Inc.  All Rights Reserved.
  
 This is part of the Gaussian(R) 16 program.  It is based on
 the Gaussian(R) 09 system (copyright 2009, Gaussian, Inc.),
 the Gaussian(R) 03 system (copyright 2003, Gaussian, Inc.),
 the Gaussian(R) 98 system (copyright 1998, Gaussian, Inc.),
 the Gaussian(R) 94 system (copyright 1995, Gaussian, Inc.),
 the Gaussian 92(TM) system (copyright 1992, Gaussian, Inc.),
 the Gaussian 90(TM) system (copyright 1990, Gaussian, Inc.),
 the Gaussian 88(TM) system (copyright 1988, Gaussian, Inc.),
 the Gaussian 86(TM) system (copyright 1986, Carnegie Mellon
 University), and the Gaussian 82(TM) system (copyright 1983,
 Carnegie Mellon University). Gaussian is a federally registered
 trademark of Gaussian, Inc.
  
 This software contains proprietary and confidential information,
 including trade secrets, belonging to Gaussian, Inc.
  
 This software is provided under written license and may be
 used, copied, transmitted, or stored only in accord with that
 written license.
  
 The following legend is applicable only to US Government
 contracts under FAR:
  
                    RESTRICTED RIGHTS LEGEND
  
 Use, reproduction and disclosure by the US Government is
 subject to restrictions as set forth in subparagraphs (a)
 and (c) of the Commercial Computer Software - Restricted
 Rights clause in FAR 52.227-19.
  
 Gaussian, Inc.
 340 Quinnipiac St., Bldg. 40, Wallingford CT 06492
  
  
 ---------------------------------------------------------------
 Warning -- This program may not be used in any manner that
 competes with the business of Gaussian, Inc. or will provide
 assistance to any competitor of Gaussian, Inc.  The licensee
 of this program is prohibited from giving any competitor of
 Gaussian, Inc. access to this program.  By using this program,
 the user acknowledges that Gaussian, Inc. is engaged in the
 business of creating and licensing software in the field of
 computational chemistry and represents and warrants to the
 licensee that it is not a competitor of Gaussian, Inc. and that
 it will not use this program in any manner prohibited above.
 ---------------------------------------------------------------
  

 Cite this work as:
 Gaussian 16, Revision A.03,
 M. J. Frisch, G. W. Trucks, H. B. Schlegel, G. E. Scuseria, 
 M. A. Robb, J. R. Cheeseman, G. Scalmani, V. Barone, 
 G. A. Petersson, H. Nakatsuji, X. Li, M. Caricato, A. V. Marenich, 
 J. Bloino, B. G. Janesko, R. Gomperts, B. Mennucci, H. P. Hratchian, 
 J. V. Ortiz, A. F. Izmaylov, J. L. Sonnenberg, D. Williams-Young, 
 F. Ding, F. Lipparini, F. Egidi, J. Goings, B. Peng, A. Petrone, 
 T. Henderson, D. Ranasinghe, V. G. Zakrzewski, J. Gao, N. Rega, 
 G. Zheng, W. Liang, M. Hada, M. Ehara, K. Toyota, R. Fukuda, 
 J. Hasegawa, M. Ishida, T. Nakajima, Y. Honda, O. Kitao, H. Nakai, 
 T. Vreven, K. Throssell, J. A. Montgomery, Jr., J. E. Peralta, 
 F. Ogliaro, M. J. Bearpark, J. J. Heyd, E. N. Brothers, K. N. Kudin, 
 V. N. Staroverov, T. A. Keith, R. Kobayashi, J. Normand, 
 K. Raghavachari, A. P. Rendell, J. C. Burant, S. S. Iyengar, 
 J. Tomasi, M. Cossi, J. M. Millam, M. Klene, C. Adamo, R. Cammi, 
 J. W. Ochterski, R. L. Martin, K. Morokuma, O. Farkas, 
 J. B. Foresman, and D. J. Fox, Gaussian, Inc., Wallingford CT, 2016.
 
 ******************************************
 Gaussian 16:  EM64L-G16RevA.03 25-Dec-2016
                 9-Mar-2019 
 ******************************************
 %nprocshared=20
 Will use up to   20 processors via shared memory.
 %mem=5GB
 ----------------------------------------------
 #p m062x/6-311+g(2df,2p) Opt=(CalcFC,ModRedun)
 ----------------------------------------------
 1/10=4,18=120,19=15,26=3,38=1/1,3;
 2/9=110,12=2,17=6,18=5,40=1/2;
 3/5=4,6=6,7=214,11=2,25=1,30=1,71=2,74=-55,140=1/1,2,3;
 4//1;
 5/5=2,38=5/2;
 8/6=4,10=90,11=11/1;
 11/6=1,8=1,9=11,15=111,16=1/1,2,10;
 10/6=1,13=1/2;
 6/7=2,8=2,9=2,10=2,28=1/1;
 7/10=1,18=20,25=1/1,2,3,16;
 1/10=4,18=20,19=15,26=3/3(2);
 2/9=110/2;
 99//99;
 2/9=110/2;
 3/5=4,6=6,7=214,11=2,25=1,30=1,71=1,74=-55/1,2,3;
 4/5=5,16=3,69=1/1;
 5/5=2,38=5/2;
 7//1,2,3,16;
 1/18=20,19=15,26=3/3(-5);
 2/9=110/2;
 6/7=2,8=2,9=2,10=2,19=2,28=1/1;
 99/9=1/99;
 Leave Link    1 at Sat Mar  9 13:22:05 2019, MaxMem=   671088640 cpu:              33.9 elap:               1.8
 (Enter /shared/centos7/gaussian/g16/l101.exe)
 ----------------------------------------
 Gaussian Input Prepared from Scan Object
 ----------------------------------------
 Symbolic Z-matrix:
 Charge =  0 Multiplicity = 2
 O                     0.77512  -0.69953  -0.49057 
 C                    -0.53737   1.18273   0.39493 
 C                    -1.50776  -1.15099  -0.10815 
 C                     1.97751  -0.00903  -0.23585 
 C                    -0.33661  -0.28261   0.18721 
 H                    -1.44929   1.34693   0.96549 
 H                     0.2844    1.6508    0.93677 
 H                    -0.64477   1.71295  -0.56276 
 H                    -2.31266  -0.96639   0.60145 
 H                    -1.90179  -0.96401  -1.11649 
 H                    -1.22551  -2.2016   -0.0566 
 H                     2.1868    0.02283   0.83651 
 H                     2.76671  -0.55875  -0.74111 
 H                     1.94693   1.01039  -0.62606 
 
 The following ModRedundant input section has been read:
 B       1       4 B                                                           
 B       2       6 B                                                           
 B       3      10 B                                                           
 B       4      12 B                                                           
 B       4      13 B                                                           
 B       4      14 B                                                           
 B       2       8 B                                                           
 B       3       9 B                                                           
 B       1       5 B                                                           
 B       3      11 B                                                           
 B       2       5 B                                                           
 B       2       7 B                                                           
 B       3       5 B                                                           
 D      14       1       5       3 S  72 10.000                                
 
 ITRead=  0  0  0  0  0  0  0  0  0  0  0  0  0  0
 MicOpt= -1 -1 -1 -1 -1 -1 -1 -1 -1 -1 -1 -1 -1 -1
 NAtoms=     14 NQM=       14 NQMF=       0 NMMI=      0 NMMIF=      0
                NMic=       0 NMicF=      0.
                    Isotopes and Nuclear Properties:
 (Nuclear quadrupole moments (NQMom) in fm**2, nuclear magnetic moments (NMagM)
  in nuclear magnetons)

  Atom         1           2           3           4           5           6           7           8           9          10
 IAtWgt=          16          12          12          12          12           1           1           1           1           1
 AtmWgt=  15.9949146  12.0000000  12.0000000  12.0000000  12.0000000   1.0078250   1.0078250   1.0078250   1.0078250   1.0078250
 NucSpn=           0           0           0           0           0           1           1           1           1           1
 AtZEff=  -0.0000000  -0.0000000  -0.0000000  -0.0000000  -0.0000000  -0.0000000  -0.0000000  -0.0000000  -0.0000000  -0.0000000
 NQMom=    0.0000000   0.0000000   0.0000000   0.0000000   0.0000000   0.0000000   0.0000000   0.0000000   0.0000000   0.0000000
 NMagM=    0.0000000   0.0000000   0.0000000   0.0000000   0.0000000   2.7928460   2.7928460   2.7928460   2.7928460   2.7928460
 AtZNuc=   8.0000000   6.0000000   6.0000000   6.0000000   6.0000000   1.0000000   1.0000000   1.0000000   1.0000000   1.0000000

  Atom        11          12          13          14
 IAtWgt=           1           1           1           1
 AtmWgt=   1.0078250   1.0078250   1.0078250   1.0078250
 NucSpn=           1           1           1           1
 AtZEff=  -0.0000000  -0.0000000  -0.0000000  -0.0000000
 NQMom=    0.0000000   0.0000000   0.0000000   0.0000000
 NMagM=    2.7928460   2.7928460   2.7928460   2.7928460
 AtZNuc=   1.0000000   1.0000000   1.0000000   1.0000000
 Leave Link  101 at Sat Mar  9 13:22:06 2019, MaxMem=   671088640 cpu:               5.4 elap:               0.3
 (Enter /shared/centos7/gaussian/g16/l103.exe)

 GradGradGradGradGradGradGradGradGradGradGradGradGradGradGradGradGradGrad
 Berny optimization.
 Initialization pass.
                           ----------------------------
                           !    Initial Parameters    !
                           ! (Angstroms and Degrees)  !
 --------------------------                            --------------------------
 ! Name  Definition              Value          Derivative Info.                !
 --------------------------------------------------------------------------------
 ! R1    R(1,4)                  1.4098         calculate D2E/DX2 analytically  !
 ! R2    R(1,5)                  1.3672         calculate D2E/DX2 analytically  !
 ! R3    R(2,5)                  1.4935         calculate D2E/DX2 analytically  !
 ! R4    R(2,6)                  1.0882         calculate D2E/DX2 analytically  !
 ! R5    R(2,7)                  1.0899         calculate D2E/DX2 analytically  !
 ! R6    R(2,8)                  1.0999         calculate D2E/DX2 analytically  !
 ! R7    R(3,5)                  1.4876         calculate D2E/DX2 analytically  !
 ! R8    R(3,9)                  1.0888         calculate D2E/DX2 analytically  !
 ! R9    R(3,10)                 1.0986         calculate D2E/DX2 analytically  !
 ! R10   R(3,11)                 1.0891         calculate D2E/DX2 analytically  !
 ! R11   R(4,12)                 1.0931         calculate D2E/DX2 analytically  !
 ! R12   R(4,13)                 1.0864         calculate D2E/DX2 analytically  !
 ! R13   R(4,14)                 1.092          calculate D2E/DX2 analytically  !
 ! A1    A(4,1,5)              117.0393         calculate D2E/DX2 analytically  !
 ! A2    A(5,2,6)              109.4889         calculate D2E/DX2 analytically  !
 ! A3    A(5,2,7)              112.9008         calculate D2E/DX2 analytically  !
 ! A4    A(5,2,8)              111.4065         calculate D2E/DX2 analytically  !
 ! A5    A(6,2,7)              107.841          calculate D2E/DX2 analytically  !
 ! A6    A(6,2,8)              107.5746         calculate D2E/DX2 analytically  !
 ! A7    A(7,2,8)              107.4241         calculate D2E/DX2 analytically  !
 ! A8    A(5,3,9)              110.7095         calculate D2E/DX2 analytically  !
 ! A9    A(5,3,10)             111.4227         calculate D2E/DX2 analytically  !
 ! A10   A(5,3,11)             110.4689         calculate D2E/DX2 analytically  !
 ! A11   A(9,3,10)             107.7089         calculate D2E/DX2 analytically  !
 ! A12   A(9,3,11)             108.9229         calculate D2E/DX2 analytically  !
 ! A13   A(10,3,11)            107.492          calculate D2E/DX2 analytically  !
 ! A14   A(1,4,12)             110.7844         calculate D2E/DX2 analytically  !
 ! A15   A(1,4,13)             106.7199         calculate D2E/DX2 analytically  !
 ! A16   A(1,4,14)             111.6419         calculate D2E/DX2 analytically  !
 ! A17   A(12,4,13)            109.3855         calculate D2E/DX2 analytically  !
 ! A18   A(12,4,14)            109.1918         calculate D2E/DX2 analytically  !
 ! A19   A(13,4,14)            109.0577         calculate D2E/DX2 analytically  !
 ! A20   A(1,5,2)              118.519          calculate D2E/DX2 analytically  !
 ! A21   A(1,5,3)              111.3297         calculate D2E/DX2 analytically  !
 ! A22   A(2,5,3)              119.638          calculate D2E/DX2 analytically  !
 ! D1    D(5,1,4,12)            53.024          calculate D2E/DX2 analytically  !
 ! D2    D(5,1,4,13)           172.0177         calculate D2E/DX2 analytically  !
 ! D3    D(5,1,4,14)           -68.9056         calculate D2E/DX2 analytically  !
 ! D4    D(4,1,5,2)             39.014          calculate D2E/DX2 analytically  !
 ! D5    D(4,1,5,3)           -176.2622         calculate D2E/DX2 analytically  !
 ! D6    D(14,1,5,3)           155.7299         Scan                            !
 ! D7    D(6,2,5,1)           -178.773          calculate D2E/DX2 analytically  !
 ! D8    D(6,2,5,3)             39.4656         calculate D2E/DX2 analytically  !
 ! D9    D(7,2,5,1)            -58.6205         calculate D2E/DX2 analytically  !
 ! D10   D(7,2,5,3)            159.6181         calculate D2E/DX2 analytically  !
 ! D11   D(8,2,5,1)             62.3605         calculate D2E/DX2 analytically  !
 ! D12   D(8,2,5,3)            -79.4009         calculate D2E/DX2 analytically  !
 ! D13   D(9,3,5,1)            166.5199         calculate D2E/DX2 analytically  !
 ! D14   D(9,3,5,2)            -49.2002         calculate D2E/DX2 analytically  !
 ! D15   D(10,3,5,1)           -73.6348         calculate D2E/DX2 analytically  !
 ! D16   D(10,3,5,2)            70.6451         calculate D2E/DX2 analytically  !
 ! D17   D(11,3,5,1)            45.7775         calculate D2E/DX2 analytically  !
 ! D18   D(11,3,5,2)          -169.9426         calculate D2E/DX2 analytically  !
 --------------------------------------------------------------------------------
 Trust Radius=3.00D-01 FncErr=1.00D-07 GrdErr=1.00D-06 EigMax=2.50D+02 EigMin=1.00D-04
 Number of optimizations in scan=  73
 Number of steps in this run=     63 maximum allowed number of steps=    100.
 GradGradGradGradGradGradGradGradGradGradGradGradGradGradGradGradGradGrad

 Leave Link  103 at Sat Mar  9 13:22:06 2019, MaxMem=   671088640 cpu:               0.2 elap:               0.0
 (Enter /shared/centos7/gaussian/g16/l202.exe)
                          Input orientation:                          
 ---------------------------------------------------------------------
 Center     Atomic      Atomic             Coordinates (Angstroms)
 Number     Number       Type             X           Y           Z
 ---------------------------------------------------------------------
      1          8           0        0.775121   -0.699535   -0.490572
      2          6           0       -0.537368    1.182726    0.394930
      3          6           0       -1.507761   -1.150988   -0.108148
      4          6           0        1.977507   -0.009031   -0.235846
      5          6           0       -0.336610   -0.282605    0.187212
      6          1           0       -1.449291    1.346935    0.965487
      7          1           0        0.284396    1.650804    0.936766
      8          1           0       -0.644775    1.712947   -0.562758
      9          1           0       -2.312664   -0.966385    0.601453
     10          1           0       -1.901786   -0.964014   -1.116493
     11          1           0       -1.225513   -2.201597   -0.056596
     12          1           0        2.186800    0.022826    0.836513
     13          1           0        2.766705   -0.558755   -0.741114
     14          1           0        1.946927    1.010389   -0.626060
 ---------------------------------------------------------------------
                    Distance matrix (angstroms):
                    1          2          3          4          5
     1  O    0.000000
     2  C    2.459603   0.000000
     3  C    2.358307   2.577008   0.000000
     4  C    1.409755   2.853551   3.669804   0.000000
     5  C    1.367175   1.493535   1.487589   2.368324   0.000000
     6  H    3.355020   1.088166   2.719509   3.876182   2.121125
     7  H    2.793241   1.089944   3.486217   2.645127   2.164614
     8  H    2.800247   1.099925   3.025482   3.154115   2.153984
     9  H    3.286053   2.795175   1.088797   4.474724   2.131651
    10  H    2.761803   2.958804   1.098624   4.091019   2.147961
    11  H    2.539107   3.482967   1.089082   3.885718   2.128877
    12  H    2.067800   2.993569   3.989988   1.093057   2.623448
    13  H    2.012212   3.903876   4.361473   1.086428   3.250941
    14  H    2.077336   2.691438   4.107877   1.091980   2.747324
                    6          7          8          9         10
     6  H    0.000000
     7  H    1.760350   0.000000
     8  H    1.765430   1.765160   0.000000
     9  H    2.495873   3.702274   3.363935   0.000000
    10  H    3.143226   3.979011   3.008790   1.766398   0.000000
    11  H    3.699569   4.255301   3.989625   1.772194   1.764182
    12  H    3.871829   2.505894   3.582218   4.612913   4.637307
    13  H    4.931406   3.722806   4.102516   5.269596   4.701059
    14  H    3.765711   2.369929   2.685984   4.853714   4.353318
                   11         12         13         14
    11  H    0.000000
    12  H    4.170081   0.000000
    13  H    4.370961   1.778604   0.000000
    14  H    4.550332   1.780994   1.774116   0.000000
 Stoichiometry    C4H9O(2)
 Framework group  C1[X(C4H9O)]
 Deg. of freedom    36
 Full point group                 C1      NOp   1
 Largest Abelian subgroup         C1      NOp   1
 Largest concise Abelian subgroup C1      NOp   1
                         Standard orientation:                         
 ---------------------------------------------------------------------
 Center     Atomic      Atomic             Coordinates (Angstroms)
 Number     Number       Type             X           Y           Z
 ---------------------------------------------------------------------
      1          8           0       -0.622380   -0.747656    0.157503
      2          6           0        0.418413    1.477924    0.042669
      3          6           0        1.729732   -0.739799   -0.013136
      4          6           0       -1.897792   -0.185926   -0.055089
      5          6           0        0.457710    0.006244   -0.208841
      6          1           0        1.336721    1.933305   -0.322629
      7          1           0       -0.418457    1.970589   -0.452214
      8          1           0        0.342405    1.699649    1.117331
      9          1           0        2.552478   -0.237547   -0.519407
     10          1           0        1.989819   -0.817195    1.051448
     11          1           0        1.640929   -1.752861   -0.402905
     12          1           0       -2.008981    0.142772   -1.091606
     13          1           0       -2.622543   -0.967520    0.155081
     14          1           0       -2.081701    0.659403    0.611258
 ---------------------------------------------------------------------
 Rotational constants (GHZ):           7.9582084           3.9979316           2.8307800
 Leave Link  202 at Sat Mar  9 13:22:06 2019, MaxMem=   671088640 cpu:               0.2 elap:               0.0
 (Enter /shared/centos7/gaussian/g16/l301.exe)
 Standard basis: 6-311+G(2df,2p) (5D, 7F)
 Ernie: Thresh=  0.10000D-02 Tol=  0.10000D-05 Strict=F.
 There are   276 symmetry adapted cartesian basis functions of A   symmetry.
 There are   251 symmetry adapted basis functions of A   symmetry.
   251 basis functions,   359 primitive gaussians,   276 cartesian basis functions
    21 alpha electrons       20 beta electrons
       nuclear repulsion energy       187.4187535556 Hartrees.
 IExCor= 4336 DFT=T Ex+Corr=M062X ExCW=0 ScaHFX=  0.540000
 ScaDFX=  1.000000  1.000000  1.000000  1.000000 ScalE2=  1.000000  1.000000
 IRadAn=      5 IRanWt=     -1 IRanGd=            0 ICorTp=0 IEmpDi=  4
 NAtoms=   14 NActive=   14 NUniq=   14 SFac= 1.00D+00 NAtFMM=   60 NAOKFM=F Big=F
 Integral buffers will be    131072 words long.
 Raffenetti 2 integral format.
 Two-electron integral symmetry is turned on.
 Leave Link  301 at Sat Mar  9 13:22:06 2019, MaxMem=   671088640 cpu:               1.0 elap:               0.1
 (Enter /shared/centos7/gaussian/g16/l302.exe)
 NPDir=0 NMtPBC=     1 NCelOv=     1 NCel=       1 NClECP=     1 NCelD=      1
         NCelK=      1 NCelE2=     1 NClLst=     1 CellRange=     0.0.
 One-electron integrals computed using PRISM.
 One-electron integral symmetry used in STVInt
 NBasis=   251 RedAO= T EigKep=  4.82D-05  NBF=   251
 NBsUse=   251 1.00D-06 EigRej= -1.00D+00 NBFU=   251
 Precomputing XC quadrature grid using
 IXCGrd= 4 IRadAn=           5 IRanWt=          -1 IRanGd=           0 AccXCQ= 0.00D+00.
 Generated NRdTot=       0 NPtTot=           0 NUsed=           0 NTot=          32
 NSgBfM=   276   276   276   276   276 MxSgAt=    14 MxSgA2=    14.
 Leave Link  302 at Sat Mar  9 13:22:06 2019, MaxMem=   671088640 cpu:               6.0 elap:               0.3
 (Enter /shared/centos7/gaussian/g16/l303.exe)
 DipDrv:  MaxL=1.
 Leave Link  303 at Sat Mar  9 13:22:06 2019, MaxMem=   671088640 cpu:               0.5 elap:               0.0
 (Enter /shared/centos7/gaussian/g16/l401.exe)
 ExpMin= 4.38D-02 ExpMax= 8.59D+03 ExpMxC= 1.30D+03 IAcc=3 IRadAn=         5 AccDes= 0.00D+00
 Harris functional with IExCor= 1009 and IRadAn=       5 diagonalized for initial guess.
 HarFok:  IExCor= 1009 AccDes= 0.00D+00 IRadAn=         5 IDoV= 1 UseB2=F ITyADJ=14
 ICtDFT=  3500011 ScaDFX=  1.000000  1.000000  1.000000  1.000000
 FoFCou: FMM=F IPFlag=           0 FMFlag=      100000 FMFlg1=           0
         NFxFlg=           0 DoJE=T BraDBF=F KetDBF=T FulRan=T
         wScrn=  0.000000 ICntrl=       500 IOpCl=  0 I1Cent=   200000004 NGrid=           0
         NMat0=    1 NMatS0=      1 NMatT0=    0 NMatD0=    1 NMtDS0=    0 NMtDT0=    0
 Petite list used in FoFCou.
 Harris En= -232.899173765242    
 JPrj=0 DoOrth=F DoCkMO=F.
 Initial guess <Sx>= 0.0000 <Sy>= 0.0000 <Sz>= 0.5000 <S**2>= 0.7500 S= 0.5000
 Leave Link  401 at Sat Mar  9 13:22:07 2019, MaxMem=   671088640 cpu:              16.8 elap:               0.9
 (Enter /shared/centos7/gaussian/g16/l502.exe)
 Integral symmetry usage will be decided dynamically.
 UHF open shell SCF:
 Using DIIS extrapolation, IDIIS=  1040.
 NGot=   671088640 LenX=   670928170 LenY=   670851553
 Requested convergence on RMS density matrix=1.00D-08 within 128 cycles.
 Requested convergence on MAX density matrix=1.00D-06.
 Requested convergence on             energy=1.00D-06.
 No special actions if energy rises.
 Fock matrices will be formed incrementally for  20 cycles.

 Cycle   1  Pass 1  IDiag  1:
 FoFJK:  IHMeth= 1 ICntrl=       0 DoSepK=F KAlg= 0 I1Cent=           0 FoldK=F
 IRaf= 980000000 NMat=       1 IRICut=       1 DoRegI=T DoRafI=F ISym2E= 0 IDoP0=0 IntGTp=1.
 FoFCou: FMM=F IPFlag=           0 FMFlag=      100000 FMFlg1=           0
         NFxFlg=           0 DoJE=F BraDBF=F KetDBF=F FulRan=T
         wScrn=  0.000000 ICntrl=         0 IOpCl=  1 I1Cent=           0 NGrid=           0
         NMat0=    1 NMatS0=      1 NMatT0=    0 NMatD0=    1 NMtDS0=    0 NMtDT0=    0
 Symmetry not used in FoFCou.
 E= -232.775417628199    
 DIIS: error= 3.07D-02 at cycle   1 NSaved=   1.
 NSaved= 1 IEnMin= 1 EnMin= -232.775417628199     IErMin= 1 ErrMin= 3.07D-02
 ErrMax= 3.07D-02  0.00D+00 EMaxC= 1.00D-01 BMatC= 8.90D-01 BMatP= 8.90D-01
 IDIUse=3 WtCom= 6.93D-01 WtEn= 3.07D-01
 Coeff-Com:  0.100D+01
 Coeff-En:   0.100D+01
 Coeff:      0.100D+01
 Gap=     0.206 Goal=   None    Shift=    0.000
 Gap=     0.383 Goal=   None    Shift=    0.000
 GapD=    0.206 DampG=1.000 DampE=0.500 DampFc=0.5000 IDamp=-1.
 Damping current iteration by 5.00D-01
 RMSDP=3.10D-03 MaxDP=1.27D-01              OVMax= 1.52D-01

 Cycle   2  Pass 1  IDiag  1:
 RMSU=  1.53D-03    CP:  9.73D-01
 E= -232.876446724614     Delta-E=       -0.101029096415 Rises=F Damp=T
 DIIS: error= 5.28D-03 at cycle   2 NSaved=   2.
 NSaved= 2 IEnMin= 2 EnMin= -232.876446724614     IErMin= 2 ErrMin= 5.28D-03
 ErrMax= 5.28D-03  0.00D+00 EMaxC= 1.00D-01 BMatC= 5.72D-02 BMatP= 8.90D-01
 IDIUse=3 WtCom= 9.47D-01 WtEn= 5.28D-02
 Coeff-Com: -0.159D+00 0.116D+01
 Coeff-En:   0.000D+00 0.100D+01
 Coeff:     -0.151D+00 0.115D+01
 Gap=     0.233 Goal=   None    Shift=    0.000
 Gap=     0.390 Goal=   None    Shift=    0.000
 RMSDP=1.06D-03 MaxDP=5.08D-02 DE=-1.01D-01 OVMax= 7.43D-02

 Cycle   3  Pass 1  IDiag  1:
 RMSU=  1.06D-03    CP:  9.66D-01  9.70D-01
 E= -232.966156415959     Delta-E=       -0.089709691345 Rises=F Damp=F
 DIIS: error= 2.35D-03 at cycle   3 NSaved=   3.
 NSaved= 3 IEnMin= 3 EnMin= -232.966156415959     IErMin= 3 ErrMin= 2.35D-03
 ErrMax= 2.35D-03  0.00D+00 EMaxC= 1.00D-01 BMatC= 3.82D-03 BMatP= 5.72D-02
 IDIUse=3 WtCom= 9.77D-01 WtEn= 2.35D-02
 Coeff-Com: -0.593D-01 0.183D+00 0.876D+00
 Coeff-En:   0.000D+00 0.000D+00 0.100D+01
 Coeff:     -0.579D-01 0.179D+00 0.879D+00
 Gap=     0.222 Goal=   None    Shift=    0.000
 Gap=     0.354 Goal=   None    Shift=    0.000
 RMSDP=2.19D-04 MaxDP=1.63D-02 DE=-8.97D-02 OVMax= 1.28D-02

 Cycle   4  Pass 1  IDiag  1:
 RMSU=  1.71D-04    CP:  9.63D-01  1.05D+00  1.04D+00
 E= -232.967125064707     Delta-E=       -0.000968648747 Rises=F Damp=F
 DIIS: error= 1.09D-03 at cycle   4 NSaved=   4.
 NSaved= 4 IEnMin= 4 EnMin= -232.967125064707     IErMin= 4 ErrMin= 1.09D-03
 ErrMax= 1.09D-03  0.00D+00 EMaxC= 1.00D-01 BMatC= 8.44D-04 BMatP= 3.82D-03
 IDIUse=3 WtCom= 9.89D-01 WtEn= 1.09D-02
 Coeff-Com: -0.168D-01 0.358D-01 0.345D+00 0.636D+00
 Coeff-En:   0.000D+00 0.000D+00 0.000D+00 0.100D+01
 Coeff:     -0.166D-01 0.354D-01 0.341D+00 0.640D+00
 Gap=     0.228 Goal=   None    Shift=    0.000
 Gap=     0.354 Goal=   None    Shift=    0.000
 RMSDP=8.38D-05 MaxDP=4.07D-03 DE=-9.69D-04 OVMax= 5.80D-03

 Cycle   5  Pass 1  IDiag  1:
 RMSU=  6.28D-05    CP:  9.64D-01  1.03D+00  1.07D+00  9.44D-01
 E= -232.967346542406     Delta-E=       -0.000221477700 Rises=F Damp=F
 DIIS: error= 2.95D-04 at cycle   5 NSaved=   5.
 NSaved= 5 IEnMin= 5 EnMin= -232.967346542406     IErMin= 5 ErrMin= 2.95D-04
 ErrMax= 2.95D-04  0.00D+00 EMaxC= 1.00D-01 BMatC= 1.21D-04 BMatP= 8.44D-04
 IDIUse=3 WtCom= 9.97D-01 WtEn= 2.95D-03
 Coeff-Com:  0.386D-02-0.170D-01-0.223D-01 0.193D+00 0.843D+00
 Coeff-En:   0.000D+00 0.000D+00 0.000D+00 0.000D+00 0.100D+01
 Coeff:      0.385D-02-0.170D-01-0.222D-01 0.192D+00 0.843D+00
 Gap=     0.228 Goal=   None    Shift=    0.000
 Gap=     0.354 Goal=   None    Shift=    0.000
 RMSDP=3.24D-05 MaxDP=2.09D-03 DE=-2.21D-04 OVMax= 3.83D-03

 Cycle   6  Pass 1  IDiag  1:
 RMSU=  2.23D-05    CP:  9.64D-01  1.02D+00  1.08D+00  1.02D+00  1.21D+00
 E= -232.967400708248     Delta-E=       -0.000054165842 Rises=F Damp=F
 DIIS: error= 2.21D-04 at cycle   6 NSaved=   6.
 NSaved= 6 IEnMin= 6 EnMin= -232.967400708248     IErMin= 6 ErrMin= 2.21D-04
 ErrMax= 2.21D-04  0.00D+00 EMaxC= 1.00D-01 BMatC= 2.25D-05 BMatP= 1.21D-04
 IDIUse=3 WtCom= 9.98D-01 WtEn= 2.21D-03
 Coeff-Com:  0.449D-02-0.107D-01-0.885D-01-0.102D+00 0.193D+00 0.100D+01
 Coeff-En:   0.000D+00 0.000D+00 0.000D+00 0.000D+00 0.000D+00 0.100D+01
 Coeff:      0.448D-02-0.106D-01-0.883D-01-0.102D+00 0.192D+00 0.100D+01
 Gap=     0.229 Goal=   None    Shift=    0.000
 Gap=     0.355 Goal=   None    Shift=    0.000
 RMSDP=2.36D-05 MaxDP=1.07D-03 DE=-5.42D-05 OVMax= 3.89D-03

 Cycle   7  Pass 1  IDiag  1:
 RMSU=  1.29D-05    CP:  9.64D-01  1.02D+00  1.09D+00  1.03D+00  1.42D+00
                    CP:  1.44D+00
 E= -232.967417419673     Delta-E=       -0.000016711425 Rises=F Damp=F
 DIIS: error= 1.00D-04 at cycle   7 NSaved=   7.
 NSaved= 7 IEnMin= 7 EnMin= -232.967417419673     IErMin= 7 ErrMin= 1.00D-04
 ErrMax= 1.00D-04  0.00D+00 EMaxC= 1.00D-01 BMatC= 9.60D-06 BMatP= 2.25D-05
 IDIUse=3 WtCom= 9.99D-01 WtEn= 1.00D-03
 Coeff-Com:  0.119D-02-0.171D-02-0.411D-01-0.921D-01-0.924D-01 0.519D+00
 Coeff-Com:  0.708D+00
 Coeff-En:   0.000D+00 0.000D+00 0.000D+00 0.000D+00 0.000D+00 0.000D+00
 Coeff-En:   0.100D+01
 Coeff:      0.119D-02-0.171D-02-0.410D-01-0.920D-01-0.924D-01 0.518D+00
 Coeff:      0.708D+00
 Gap=     0.229 Goal=   None    Shift=    0.000
 Gap=     0.354 Goal=   None    Shift=    0.000
 RMSDP=1.19D-05 MaxDP=5.34D-04 DE=-1.67D-05 OVMax= 1.16D-03

 Cycle   8  Pass 1  IDiag  1:
 RMSU=  4.82D-06    CP:  9.64D-01  1.01D+00  1.09D+00  1.02D+00  1.50D+00
                    CP:  1.77D+00  1.21D+00
 E= -232.967420771823     Delta-E=       -0.000003352149 Rises=F Damp=F
 DIIS: error= 3.00D-05 at cycle   8 NSaved=   8.
 NSaved= 8 IEnMin= 8 EnMin= -232.967420771823     IErMin= 8 ErrMin= 3.00D-05
 ErrMax= 3.00D-05  0.00D+00 EMaxC= 1.00D-01 BMatC= 3.73D-07 BMatP= 9.60D-06
 IDIUse=1 WtCom= 1.00D+00 WtEn= 0.00D+00
 Coeff-Com: -0.843D-03 0.199D-02 0.126D-01 0.133D-01-0.315D-01-0.118D+00
 Coeff-Com:  0.228D-01 0.110D+01
 Coeff:     -0.843D-03 0.199D-02 0.126D-01 0.133D-01-0.315D-01-0.118D+00
 Coeff:      0.228D-01 0.110D+01
 Gap=     0.229 Goal=   None    Shift=    0.000
 Gap=     0.355 Goal=   None    Shift=    0.000
 RMSDP=6.70D-06 MaxDP=6.95D-04 DE=-3.35D-06 OVMax= 5.29D-04

 Cycle   9  Pass 1  IDiag  1:
 RMSU=  2.13D-06    CP:  9.64D-01  1.01D+00  1.09D+00  1.00D+00  1.49D+00
                    CP:  1.90D+00  1.43D+00  1.32D+00
 E= -232.967421056627     Delta-E=       -0.000000284805 Rises=F Damp=F
 DIIS: error= 6.48D-06 at cycle   9 NSaved=   9.
 NSaved= 9 IEnMin= 9 EnMin= -232.967421056627     IErMin= 9 ErrMin= 6.48D-06
 ErrMax= 6.48D-06  0.00D+00 EMaxC= 1.00D-01 BMatC= 4.99D-08 BMatP= 3.73D-07
 IDIUse=1 WtCom= 1.00D+00 WtEn= 0.00D+00
 Coeff-Com: -0.243D-03 0.508D-03 0.635D-02 0.114D-01 0.303D-02-0.750D-01
 Coeff-Com: -0.737D-01 0.203D+00 0.925D+00
 Coeff:     -0.243D-03 0.508D-03 0.635D-02 0.114D-01 0.303D-02-0.750D-01
 Coeff:     -0.737D-01 0.203D+00 0.925D+00
 Gap=     0.229 Goal=   None    Shift=    0.000
 Gap=     0.355 Goal=   None    Shift=    0.000
 RMSDP=1.41D-06 MaxDP=9.06D-05 DE=-2.85D-07 OVMax= 1.45D-04

 Cycle  10  Pass 1  IDiag  1:
 RMSU=  6.73D-07    CP:  9.64D-01  1.01D+00  1.09D+00  9.99D-01  1.49D+00
                    CP:  1.93D+00  1.48D+00  1.42D+00  1.05D+00
 E= -232.967421084508     Delta-E=       -0.000000027880 Rises=F Damp=F
 DIIS: error= 1.85D-06 at cycle  10 NSaved=  10.
 NSaved=10 IEnMin=10 EnMin= -232.967421084508     IErMin=10 ErrMin= 1.85D-06
 ErrMax= 1.85D-06  0.00D+00 EMaxC= 1.00D-01 BMatC= 5.91D-09 BMatP= 4.99D-08
 IDIUse=1 WtCom= 1.00D+00 WtEn= 0.00D+00
 Coeff-Com:  0.530D-04-0.122D-03-0.850D-06 0.970D-03 0.317D-02-0.139D-02
 Coeff-Com: -0.182D-01-0.714D-01 0.179D+00 0.908D+00
 Coeff:      0.530D-04-0.122D-03-0.850D-06 0.970D-03 0.317D-02-0.139D-02
 Coeff:     -0.182D-01-0.714D-01 0.179D+00 0.908D+00
 Gap=     0.229 Goal=   None    Shift=    0.000
 Gap=     0.355 Goal=   None    Shift=    0.000
 RMSDP=3.24D-07 MaxDP=1.50D-05 DE=-2.79D-08 OVMax= 3.83D-05

 Cycle  11  Pass 1  IDiag  1:
 RMSU=  2.15D-07    CP:  9.64D-01  1.01D+00  1.09D+00  9.99D-01  1.49D+00
                    CP:  1.93D+00  1.48D+00  1.43D+00  1.10D+00  1.23D+00
 E= -232.967421087131     Delta-E=       -0.000000002624 Rises=F Damp=F
 DIIS: error= 7.47D-07 at cycle  11 NSaved=  11.
 NSaved=11 IEnMin=11 EnMin= -232.967421087131     IErMin=11 ErrMin= 7.47D-07
 ErrMax= 7.47D-07  0.00D+00 EMaxC= 1.00D-01 BMatC= 1.03D-09 BMatP= 5.91D-09
 IDIUse=1 WtCom= 1.00D+00 WtEn= 0.00D+00
 Coeff-Com:  0.465D-04-0.101D-03-0.772D-03-0.105D-02 0.432D-03 0.915D-02
 Coeff-Com:  0.264D-02-0.482D-01-0.649D-01 0.287D+00 0.816D+00
 Coeff:      0.465D-04-0.101D-03-0.772D-03-0.105D-02 0.432D-03 0.915D-02
 Coeff:      0.264D-02-0.482D-01-0.649D-01 0.287D+00 0.816D+00
 Gap=     0.229 Goal=   None    Shift=    0.000
 Gap=     0.355 Goal=   None    Shift=    0.000
 RMSDP=1.38D-07 MaxDP=8.53D-06 DE=-2.62D-09 OVMax= 1.00D-05

 Cycle  12  Pass 1  IDiag  1:
 RMSU=  7.88D-08    CP:  9.64D-01  1.01D+00  1.09D+00  9.99D-01  1.49D+00
                    CP:  1.93D+00  1.48D+00  1.43D+00  1.09D+00  1.34D+00
                    CP:  1.23D+00
 E= -232.967421087511     Delta-E=       -0.000000000380 Rises=F Damp=F
 DIIS: error= 2.43D-07 at cycle  12 NSaved=  12.
 NSaved=12 IEnMin=12 EnMin= -232.967421087511     IErMin=12 ErrMin= 2.43D-07
 ErrMax= 2.43D-07  0.00D+00 EMaxC= 1.00D-01 BMatC= 6.66D-11 BMatP= 1.03D-09
 IDIUse=1 WtCom= 1.00D+00 WtEn= 0.00D+00
 Coeff-Com: -0.147D-05 0.185D-05-0.783D-04-0.172D-03-0.193D-03 0.114D-02
 Coeff-Com:  0.162D-02 0.688D-03-0.249D-01-0.536D-01 0.117D+00 0.958D+00
 Coeff:     -0.147D-05 0.185D-05-0.783D-04-0.172D-03-0.193D-03 0.114D-02
 Coeff:      0.162D-02 0.688D-03-0.249D-01-0.536D-01 0.117D+00 0.958D+00
 Gap=     0.229 Goal=   None    Shift=    0.000
 Gap=     0.355 Goal=   None    Shift=    0.000
 RMSDP=8.19D-08 MaxDP=8.69D-06 DE=-3.80D-10 OVMax= 2.50D-06

 Cycle  13  Pass 1  IDiag  1:
 RMSU=  2.48D-08    CP:  9.64D-01  1.01D+00  1.09D+00  1.00D+00  1.49D+00
                    CP:  1.93D+00  1.47D+00  1.43D+00  1.08D+00  1.37D+00
                    CP:  1.36D+00  1.20D+00
 E= -232.967421087546     Delta-E=       -0.000000000035 Rises=F Damp=F
 DIIS: error= 6.59D-08 at cycle  13 NSaved=  13.
 NSaved=13 IEnMin=13 EnMin= -232.967421087546     IErMin=13 ErrMin= 6.59D-08
 ErrMax= 6.59D-08  0.00D+00 EMaxC= 1.00D-01 BMatC= 6.00D-12 BMatP= 6.66D-11
 IDIUse=1 WtCom= 1.00D+00 WtEn= 0.00D+00
 Coeff-Com: -0.415D-05 0.872D-05 0.520D-04 0.635D-04-0.273D-04-0.621D-03
 Coeff-Com:  0.118D-04 0.427D-02 0.227D-02-0.322D-01-0.590D-01 0.122D+00
 Coeff-Com:  0.963D+00
 Coeff:     -0.415D-05 0.872D-05 0.520D-04 0.635D-04-0.273D-04-0.621D-03
 Coeff:      0.118D-04 0.427D-02 0.227D-02-0.322D-01-0.590D-01 0.122D+00
 Coeff:      0.963D+00
 Gap=     0.229 Goal=   None    Shift=    0.000
 Gap=     0.355 Goal=   None    Shift=    0.000
 RMSDP=2.23D-08 MaxDP=2.10D-06 DE=-3.46D-11 OVMax= 1.10D-06

 Cycle  14  Pass 1  IDiag  1:
 RMSU=  7.75D-09    CP:  9.64D-01  1.01D+00  1.09D+00  1.00D+00  1.49D+00
                    CP:  1.93D+00  1.47D+00  1.43D+00  1.08D+00  1.38D+00
                    CP:  1.40D+00  1.30D+00  1.17D+00
 E= -232.967421087548     Delta-E=       -0.000000000003 Rises=F Damp=F
 DIIS: error= 2.30D-08 at cycle  14 NSaved=  14.
 NSaved=14 IEnMin=14 EnMin= -232.967421087548     IErMin=14 ErrMin= 2.30D-08
 ErrMax= 2.30D-08  0.00D+00 EMaxC= 1.00D-01 BMatC= 6.10D-13 BMatP= 6.00D-12
 IDIUse=1 WtCom= 1.00D+00 WtEn= 0.00D+00
 Coeff-Com: -0.872D-07 0.432D-06 0.784D-05 0.984D-05 0.590D-05-0.113D-03
 Coeff-Com: -0.104D-03 0.420D-03 0.183D-02 0.106D-02-0.168D-01-0.709D-01
 Coeff-Com:  0.127D+00 0.957D+00
 Coeff:     -0.872D-07 0.432D-06 0.784D-05 0.984D-05 0.590D-05-0.113D-03
 Coeff:     -0.104D-03 0.420D-03 0.183D-02 0.106D-02-0.168D-01-0.709D-01
 Coeff:      0.127D+00 0.957D+00
 Gap=     0.229 Goal=   None    Shift=    0.000
 Gap=     0.355 Goal=   None    Shift=    0.000
 RMSDP=4.34D-09 MaxDP=2.02D-07 DE=-2.56D-12 OVMax= 3.31D-07

 SCF Done:  E(UM062X) =  -232.967421088     A.U. after   14 cycles
            NFock= 14  Conv=0.43D-08     -V/T= 2.0039
 <Sx>= 0.0000 <Sy>= 0.0000 <Sz>= 0.5000 <S**2>= 0.7542 S= 0.5021
 <L.S>= 0.000000000000E+00
 KE= 2.320634220853D+02 PE=-9.177053707769D+02 EE= 2.652557740485D+02
 Annihilation of the first spin contaminant:
 S**2 before annihilation     0.7542,   after     0.7500
 Leave Link  502 at Sat Mar  9 13:22:52 2019, MaxMem=   671088640 cpu:             900.8 elap:              45.1
 (Enter /shared/centos7/gaussian/g16/l801.exe)
 DoSCS=F DFT=T ScalE2(SS,OS)=  1.000000  1.000000
 Range of M.O.s used for correlation:     1   251
 NBasis=   251 NAE=    21 NBE=    20 NFC=     0 NFV=     0
 NROrb=    251 NOA=    21 NOB=    20 NVA=   230 NVB=   231

 **** Warning!!: The largest alpha MO coefficient is  0.46284860D+02


 **** Warning!!: The largest beta MO coefficient is  0.46911033D+02

 Leave Link  801 at Sat Mar  9 13:22:52 2019, MaxMem=   671088640 cpu:               0.4 elap:               0.0
 (Enter /shared/centos7/gaussian/g16/l1101.exe)
 Using compressed storage, NAtomX=    14.
 Will process     15 centers per pass.
 Leave Link 1101 at Sat Mar  9 13:22:52 2019, MaxMem=   671088640 cpu:               6.2 elap:               0.3
 (Enter /shared/centos7/gaussian/g16/l1102.exe)
 Symmetrizing basis deriv contribution to polar:
 IMax=3 JMax=2 DiffMx= 0.00D+00
 Leave Link 1102 at Sat Mar  9 13:22:53 2019, MaxMem=   671088640 cpu:               0.5 elap:               0.1
 (Enter /shared/centos7/gaussian/g16/l1110.exe)
 Forming Gx(P) for the SCF density, NAtomX=    14.
 Integral derivatives from FoFJK, PRISM(SPDF).
 Do as many integral derivatives as possible in FoFJK.
 G2DrvN: MDV=     671087496.
 G2DrvN: will do    15 centers at a time, making    1 passes.
 Calling FoFCou, ICntrl=  3107 FMM=F I1Cent=   0 AccDes= 0.00D+00.
 FoFJK:  IHMeth= 1 ICntrl=    3107 DoSepK=F KAlg= 0 I1Cent=           0 FoldK=F
 IRaf=         0 NMat=       1 IRICut=       1 DoRegI=T DoRafI=F ISym2E= 0 IDoP0=0 IntGTp=1.
 FoFCou: FMM=F IPFlag=           0 FMFlag=      100000 FMFlg1=           0
         NFxFlg=           0 DoJE=F BraDBF=F KetDBF=F FulRan=T
         wScrn=  0.000000 ICntrl=      3107 IOpCl=  1 I1Cent=           0 NGrid=           0
         NMat0=    1 NMatS0=      1 NMatT0=    0 NMatD0=    1 NMtDS0=    0 NMtDT0=    0
 Symmetry not used in FoFCou.
 End of G2Drv F.D. properties file   721 does not exist.
 End of G2Drv F.D. properties file   722 does not exist.
 End of G2Drv F.D. properties file   788 does not exist.
 Leave Link 1110 at Sat Mar  9 13:24:19 2019, MaxMem=   671088640 cpu:            1719.2 elap:              86.0
 (Enter /shared/centos7/gaussian/g16/l1002.exe)
 Minotr:  UHF open shell wavefunction.
          IDoAtm=11111111111111
          Direct CPHF calculation.
          Differentiating once with respect to nuclear coordinates.
          Requested convergence is 1.0D-08 RMS, and 1.0D-07 maximum.
          Secondary convergence is 1.0D-12 RMS, and 1.0D-12 maximum.
          NewPWx=T KeepS1=F KeepF1=F KeepIn=T MapXYZ=F SortEE=F KeepMc=T.
         4257 words used for storage of precomputed grid.
 Two-electron integrals replicated using symmetry.
          MDV=     671088640 using IRadAn=       1.
          Solving linear equations simultaneously, MaxMat=     380.
 FoF2E skips out because all densities are zero.
 CalDSu exits because no D1Ps are significant.
 FoFJK:  IHMeth= 1 ICntrl=       0 DoSepK=F KAlg= 0 I1Cent=           0 FoldK=F
 IRaf= 980000000 NMat=      42 IRICut=     105 DoRegI=T DoRafI=T ISym2E= 2 IDoP0=3 IntGTp=3.
 FoFCou: FMM=F IPFlag=           0 FMFlag=      100000 FMFlg1=           0
         NFxFlg=           0 DoJE=F BraDBF=F KetDBF=F FulRan=T
         wScrn=  0.000000 ICntrl=         0 IOpCl=  1 I1Cent=           0 NGrid=           0
         NMat0=   42 NMatS0=     42 NMatT0=    0 NMatD0=   42 NMtDS0=    0 NMtDT0=    0
 Integrals replicated using symmetry in FoFCou.
 Raff kept on since  96.03% of shell-pairs survive, threshold=   0.20 IRatSp=96.
          There are    45 degrees of freedom in the 1st order CPHF.  IDoFFX=6 NUNeed=     0.
     39 vectors produced by pass  0 Test12= 2.10D-14 2.22D-09 XBig12= 1.54D-01 5.51D-02.
 AX will form    39 AO Fock derivatives at one time.
     39 vectors produced by pass  1 Test12= 2.10D-14 2.22D-09 XBig12= 1.02D-02 1.84D-02.
     39 vectors produced by pass  2 Test12= 2.10D-14 2.22D-09 XBig12= 5.18D-04 3.74D-03.
     39 vectors produced by pass  3 Test12= 2.10D-14 2.22D-09 XBig12= 7.74D-06 3.37D-04.
     39 vectors produced by pass  4 Test12= 2.10D-14 2.22D-09 XBig12= 1.08D-07 6.57D-05.
     39 vectors produced by pass  5 Test12= 2.10D-14 2.22D-09 XBig12= 1.13D-09 4.84D-06.
     38 vectors produced by pass  6 Test12= 2.10D-14 2.22D-09 XBig12= 7.31D-12 3.00D-07.
     15 vectors produced by pass  7 Test12= 2.10D-14 2.22D-09 XBig12= 4.75D-14 1.83D-08.
 InvSVY:  IOpt=1 It=  1 EMax= 1.55D-15
 Solved reduced A of dimension   287 with    39 vectors.
 End of Minotr F.D. properties file   721 does not exist.
 End of Minotr F.D. properties file   722 does not exist.
 End of Minotr F.D. properties file   788 does not exist.
 Leave Link 1002 at Sat Mar  9 13:26:28 2019, MaxMem=   671088640 cpu:            2593.4 elap:             129.7
 (Enter /shared/centos7/gaussian/g16/l601.exe)
 Copying SCF densities to generalized density rwf, IOpCl= 1 IROHF=0.

 **********************************************************************

            Population analysis using the SCF density.

 **********************************************************************

 Orbital symmetries:
 Alpha Orbitals:
       Occupied  (A) (A) (A) (A) (A) (A) (A) (A) (A) (A) (A) (A)
                 (A) (A) (A) (A) (A) (A) (A) (A) (A)
       Virtual   (A) (A) (A) (A) (A) (A) (A) (A) (A) (A) (A) (A)
                 (A) (A) (A) (A) (A) (A) (A) (A) (A) (A) (A) (A)
                 (A) (A) (A) (A) (A) (A) (A) (A) (A) (A) (A) (A)
                 (A) (A) (A) (A) (A) (A) (A) (A) (A) (A) (A) (A)
                 (A) (A) (A) (A) (A) (A) (A) (A) (A) (A) (A) (A)
                 (A) (A) (A) (A) (A) (A) (A) (A) (A) (A) (A) (A)
                 (A) (A) (A) (A) (A) (A) (A) (A) (A) (A) (A) (A)
                 (A) (A) (A) (A) (A) (A) (A) (A) (A) (A) (A) (A)
                 (A) (A) (A) (A) (A) (A) (A) (A) (A) (A) (A) (A)
                 (A) (A) (A) (A) (A) (A) (A) (A) (A) (A) (A) (A)
                 (A) (A) (A) (A) (A) (A) (A) (A) (A) (A) (A) (A)
                 (A) (A) (A) (A) (A) (A) (A) (A) (A) (A) (A) (A)
                 (A) (A) (A) (A) (A) (A) (A) (A) (A) (A) (A) (A)
                 (A) (A) (A) (A) (A) (A) (A) (A) (A) (A) (A) (A)
                 (A) (A) (A) (A) (A) (A) (A) (A) (A) (A) (A) (A)
                 (A) (A) (A) (A) (A) (A) (A) (A) (A) (A) (A) (A)
                 (A) (A) (A) (A) (A) (A) (A) (A) (A) (A) (A) (A)
                 (A) (A) (A) (A) (A) (A) (A) (A) (A) (A) (A) (A)
                 (A) (A) (A) (A) (A) (A) (A) (A) (A) (A) (A) (A)
                 (A) (A)
 Beta  Orbitals:
       Occupied  (A) (A) (A) (A) (A) (A) (A) (A) (A) (A) (A) (A)
                 (A) (A) (A) (A) (A) (A) (A) (A)
       Virtual   (A) (A) (A) (A) (A) (A) (A) (A) (A) (A) (A) (A)
                 (A) (A) (A) (A) (A) (A) (A) (A) (A) (A) (A) (A)
                 (A) (A) (A) (A) (A) (A) (A) (A) (A) (A) (A) (A)
                 (A) (A) (A) (A) (A) (A) (A) (A) (A) (A) (A) (A)
                 (A) (A) (A) (A) (A) (A) (A) (A) (A) (A) (A) (A)
                 (A) (A) (A) (A) (A) (A) (A) (A) (A) (A) (A) (A)
                 (A) (A) (A) (A) (A) (A) (A) (A) (A) (A) (A) (A)
                 (A) (A) (A) (A) (A) (A) (A) (A) (A) (A) (A) (A)
                 (A) (A) (A) (A) (A) (A) (A) (A) (A) (A) (A) (A)
                 (A) (A) (A) (A) (A) (A) (A) (A) (A) (A) (A) (A)
                 (A) (A) (A) (A) (A) (A) (A) (A) (A) (A) (A) (A)
                 (A) (A) (A) (A) (A) (A) (A) (A) (A) (A) (A) (A)
                 (A) (A) (A) (A) (A) (A) (A) (A) (A) (A) (A) (A)
                 (A) (A) (A) (A) (A) (A) (A) (A) (A) (A) (A) (A)
                 (A) (A) (A) (A) (A) (A) (A) (A) (A) (A) (A) (A)
                 (A) (A) (A) (A) (A) (A) (A) (A) (A) (A) (A) (A)
                 (A) (A) (A) (A) (A) (A) (A) (A) (A) (A) (A) (A)
                 (A) (A) (A) (A) (A) (A) (A) (A) (A) (A) (A) (A)
                 (A) (A) (A) (A) (A) (A) (A) (A) (A) (A) (A) (A)
                 (A) (A) (A)
 The electronic state is 2-A.
 Alpha  occ. eigenvalues --  -19.64193 -10.58023 -10.58008 -10.52989 -10.52150
 Alpha  occ. eigenvalues --   -1.18204  -0.88255  -0.80442  -0.77376  -0.64310
 Alpha  occ. eigenvalues --   -0.55749  -0.55484  -0.54862  -0.49274  -0.46501
 Alpha  occ. eigenvalues --   -0.45893  -0.44555  -0.43013  -0.40525  -0.37535
 Alpha  occ. eigenvalues --   -0.21188
 Alpha virt. eigenvalues --    0.01707   0.02956   0.03631   0.04651   0.05490
 Alpha virt. eigenvalues --    0.06390   0.07331   0.08025   0.08189   0.09638
 Alpha virt. eigenvalues --    0.12054   0.13199   0.13608   0.14296   0.15495
 Alpha virt. eigenvalues --    0.15892   0.18305   0.19397   0.21087   0.22372
 Alpha virt. eigenvalues --    0.23519   0.24019   0.24954   0.26056   0.26793
 Alpha virt. eigenvalues --    0.27599   0.28092   0.30047   0.31818   0.32992
 Alpha virt. eigenvalues --    0.33756   0.37717   0.38246   0.40710   0.42338
 Alpha virt. eigenvalues --    0.45797   0.46116   0.48933   0.50946   0.51777
 Alpha virt. eigenvalues --    0.54757   0.55194   0.55591   0.56637   0.57454
 Alpha virt. eigenvalues --    0.58408   0.59344   0.60737   0.62608   0.63237
 Alpha virt. eigenvalues --    0.64341   0.65841   0.67646   0.69777   0.70032
 Alpha virt. eigenvalues --    0.71322   0.72464   0.76546   0.79582   0.82115
 Alpha virt. eigenvalues --    0.86025   0.87126   0.88918   0.89356   0.94824
 Alpha virt. eigenvalues --    0.96058   0.97817   1.00218   1.02128   1.02721
 Alpha virt. eigenvalues --    1.06503   1.08506   1.11402   1.12626   1.13327
 Alpha virt. eigenvalues --    1.15463   1.16965   1.18325   1.19091   1.21125
 Alpha virt. eigenvalues --    1.23044   1.24490   1.25443   1.28835   1.30889
 Alpha virt. eigenvalues --    1.31268   1.32238   1.34003   1.36180   1.36461
 Alpha virt. eigenvalues --    1.37560   1.39834   1.41439   1.43527   1.44170
 Alpha virt. eigenvalues --    1.46596   1.47633   1.50513   1.51965   1.53677
 Alpha virt. eigenvalues --    1.57218   1.58660   1.59294   1.60326   1.61860
 Alpha virt. eigenvalues --    1.64125   1.69383   1.71388   1.79595   2.00718
 Alpha virt. eigenvalues --    2.06869   2.15402   2.28882   2.34430   2.38108
 Alpha virt. eigenvalues --    2.42137   2.44812   2.51604   2.54268   2.58551
 Alpha virt. eigenvalues --    2.62717   2.68285   2.73887   2.76111   2.81529
 Alpha virt. eigenvalues --    2.86442   2.88944   2.91109   2.95916   2.97057
 Alpha virt. eigenvalues --    2.98662   3.00493   3.02523   3.04644   3.08546
 Alpha virt. eigenvalues --    3.10959   3.13205   3.14349   3.15107   3.17599
 Alpha virt. eigenvalues --    3.17833   3.19748   3.20996   3.25899   3.27290
 Alpha virt. eigenvalues --    3.28911   3.31188   3.35542   3.38577   3.39958
 Alpha virt. eigenvalues --    3.40579   3.43766   3.45202   3.47877   3.49073
 Alpha virt. eigenvalues --    3.50350   3.54623   3.56996   3.60171   3.61140
 Alpha virt. eigenvalues --    3.62144   3.64433   3.68047   3.73049   3.75647
 Alpha virt. eigenvalues --    3.80175   3.85273   3.86576   3.87681   3.89178
 Alpha virt. eigenvalues --    3.92078   3.93517   3.96878   4.00666   4.05257
 Alpha virt. eigenvalues --    4.06692   4.08180   4.11750   4.13468   4.17649
 Alpha virt. eigenvalues --    4.19060   4.21235   4.22052   4.23449   4.27783
 Alpha virt. eigenvalues --    4.29860   4.31654   4.34614   4.36008   4.38083
 Alpha virt. eigenvalues --    4.41739   4.43159   4.45979   4.48991   4.50737
 Alpha virt. eigenvalues --    4.52025   4.58061   4.62150   4.65298   4.69103
 Alpha virt. eigenvalues --    4.82115   4.94555   5.15446   5.23571   5.28189
 Alpha virt. eigenvalues --    5.30989   5.47111   5.51481   5.55337   5.59031
 Alpha virt. eigenvalues --    5.60219   5.61309   5.63388   5.67959   5.69041
 Alpha virt. eigenvalues --    5.80873   5.95023   6.31213   6.48059   6.78815
 Alpha virt. eigenvalues --    7.15704   7.21247   7.31710   7.73102   7.75582
 Alpha virt. eigenvalues --   24.28949  24.42905  24.45624  24.56488  50.19335
  Beta  occ. eigenvalues --  -19.63900 -10.58024 -10.57251 -10.53012 -10.52189
  Beta  occ. eigenvalues --   -1.17115  -0.86823  -0.80083  -0.77132  -0.62967
  Beta  occ. eigenvalues --   -0.54496  -0.54280  -0.53591  -0.47882  -0.46199
  Beta  occ. eigenvalues --   -0.45093  -0.44346  -0.42582  -0.39125  -0.36123
  Beta virt. eigenvalues --   -0.00666   0.02347   0.03059   0.03741   0.03984
  Beta virt. eigenvalues --    0.05609   0.06287   0.07098   0.07883   0.08004
  Beta virt. eigenvalues --    0.09533   0.11555   0.12210   0.12720   0.13145
  Beta virt. eigenvalues --    0.14981   0.15539   0.18503   0.19295   0.20669
  Beta virt. eigenvalues --    0.22443   0.23585   0.24251   0.25091   0.25444
  Beta virt. eigenvalues --    0.26915   0.27824   0.28444   0.30294   0.31823
  Beta virt. eigenvalues --    0.33438   0.34624   0.37882   0.38052   0.40762
  Beta virt. eigenvalues --    0.42233   0.45856   0.46331   0.48923   0.50983
  Beta virt. eigenvalues --    0.51919   0.54783   0.55269   0.55598   0.56664
  Beta virt. eigenvalues --    0.57440   0.58457   0.59757   0.61354   0.62820
  Beta virt. eigenvalues --    0.63503   0.65045   0.66001   0.67558   0.69670
  Beta virt. eigenvalues --    0.69741   0.71294   0.72153   0.76413   0.79294
  Beta virt. eigenvalues --    0.81760   0.85772   0.87454   0.89035   0.89520
  Beta virt. eigenvalues --    0.94596   0.95990   0.97838   1.00122   1.02094
  Beta virt. eigenvalues --    1.02135   1.06510   1.08540   1.11644   1.12498
  Beta virt. eigenvalues --    1.13319   1.15389   1.16799   1.17909   1.18989
  Beta virt. eigenvalues --    1.21244   1.22946   1.24805   1.25639   1.29111
  Beta virt. eigenvalues --    1.30825   1.31824   1.32682   1.34575   1.36284
  Beta virt. eigenvalues --    1.36913   1.37891   1.40158   1.41398   1.43454
  Beta virt. eigenvalues --    1.44075   1.46464   1.47454   1.50271   1.51618
  Beta virt. eigenvalues --    1.53337   1.57060   1.58478   1.59163   1.60175
  Beta virt. eigenvalues --    1.61570   1.63938   1.69814   1.71556   1.79645
  Beta virt. eigenvalues --    2.01262   2.07449   2.16033   2.29482   2.35018
  Beta virt. eigenvalues --    2.38543   2.42707   2.45195   2.52300   2.54920
  Beta virt. eigenvalues --    2.58780   2.63439   2.68836   2.75281   2.78068
  Beta virt. eigenvalues --    2.84644   2.88176   2.90665   2.94132   2.96382
  Beta virt. eigenvalues --    2.97385   2.99035   3.01314   3.03755   3.05188
  Beta virt. eigenvalues --    3.09350   3.11533   3.13909   3.14968   3.15313
  Beta virt. eigenvalues --    3.17557   3.18198   3.20264   3.21348   3.26533
  Beta virt. eigenvalues --    3.27956   3.29659   3.32135   3.36516   3.38876
  Beta virt. eigenvalues --    3.41016   3.41874   3.44146   3.46810   3.48441
  Beta virt. eigenvalues --    3.50204   3.50920   3.55937   3.58297   3.60618
  Beta virt. eigenvalues --    3.62092   3.64364   3.67946   3.69191   3.75023
  Beta virt. eigenvalues --    3.76511   3.81284   3.85987   3.86880   3.88174
  Beta virt. eigenvalues --    3.89245   3.92352   3.94214   3.97730   4.01131
  Beta virt. eigenvalues --    4.05771   4.07422   4.08645   4.12694   4.13988
  Beta virt. eigenvalues --    4.17737   4.19381   4.21184   4.22282   4.23852
  Beta virt. eigenvalues --    4.28751   4.30214   4.31875   4.34942   4.36242
  Beta virt. eigenvalues --    4.38580   4.41782   4.43456   4.46677   4.49432
  Beta virt. eigenvalues --    4.51541   4.52425   4.58821   4.63356   4.68872
  Beta virt. eigenvalues --    4.71323   4.85187   4.94722   5.16511   5.24613
  Beta virt. eigenvalues --    5.28778   5.31562   5.49206   5.52074   5.55524
  Beta virt. eigenvalues --    5.59218   5.60138   5.61014   5.63396   5.68153
  Beta virt. eigenvalues --    5.69113   5.81227   5.95795   6.31628   6.48490
  Beta virt. eigenvalues --    6.79480   7.16311   7.21960   7.32451   7.73296
  Beta virt. eigenvalues --    7.75662  24.29424  24.42976  24.45622  24.57490
  Beta virt. eigenvalues --   50.19135
          Condensed to atoms (all electrons):
               1          2          3          4          5          6
     1  O    8.202968  -0.053957  -0.163153   0.124536   0.126852   0.007910
     2  C   -0.053957   5.290371  -0.101806  -0.009084   0.018859   0.426385
     3  C   -0.163153  -0.101806   5.278207  -0.019594   0.252649   0.016208
     4  C    0.124536  -0.009084  -0.019594   4.989583  -0.093347   0.000366
     5  C    0.126852   0.018859   0.252649  -0.093347   5.980115  -0.074654
     6  H    0.007910   0.426385   0.016208   0.000366  -0.074654   0.529526
     7  H   -0.006187   0.419215  -0.000635   0.007465  -0.059654  -0.018279
     8  H    0.007519   0.406025  -0.004292  -0.008335  -0.030190  -0.028853
     9  H    0.013125   0.003531   0.442256   0.002236  -0.085477   0.001158
    10  H   -0.002768  -0.021021   0.384021  -0.000289   0.005349  -0.001230
    11  H   -0.003289   0.021705   0.397509   0.000141  -0.047134   0.000480
    12  H   -0.042183  -0.014882  -0.006451   0.424451   0.027009  -0.000280
    13  H   -0.058422  -0.000467   0.004015   0.428340   0.012798   0.000035
    14  H   -0.042141   0.009213   0.000494   0.434268  -0.022780   0.000343
               7          8          9         10         11         12
     1  O   -0.006187   0.007519   0.013125  -0.002768  -0.003289  -0.042183
     2  C    0.419215   0.406025   0.003531  -0.021021   0.021705  -0.014882
     3  C   -0.000635  -0.004292   0.442256   0.384021   0.397509  -0.006451
     4  C    0.007465  -0.008335   0.002236  -0.000289   0.000141   0.424451
     5  C   -0.059654  -0.030190  -0.085477   0.005349  -0.047134   0.027009
     6  H   -0.018279  -0.028853   0.001158  -0.001230   0.000480  -0.000280
     7  H    0.566834  -0.045526   0.000651  -0.000654   0.000049  -0.003658
     8  H   -0.045526   0.545700  -0.000251   0.003454  -0.000799   0.001495
     9  H    0.000651  -0.000251   0.540642  -0.036747  -0.018583  -0.000044
    10  H   -0.000654   0.003454  -0.036747   0.563713  -0.033953   0.000112
    11  H    0.000049  -0.000799  -0.018583  -0.033953   0.535957  -0.000104
    12  H   -0.003658   0.001495  -0.000044   0.000112  -0.000104   0.552624
    13  H    0.000596  -0.000147   0.000015   0.000009  -0.000041  -0.020517
    14  H   -0.004142  -0.003404   0.000029  -0.000165   0.000073  -0.053361
              13         14
     1  O   -0.058422  -0.042141
     2  C   -0.000467   0.009213
     3  C    0.004015   0.000494
     4  C    0.428340   0.434268
     5  C    0.012798  -0.022780
     6  H    0.000035   0.000343
     7  H    0.000596  -0.004142
     8  H   -0.000147  -0.003404
     9  H    0.000015   0.000029
    10  H    0.000009  -0.000165
    11  H   -0.000041   0.000073
    12  H   -0.020517  -0.053361
    13  H    0.523709  -0.025653
    14  H   -0.025653   0.571323
          Atomic-Atomic Spin Densities.
               1          2          3          4          5          6
     1  O    0.204544   0.014476   0.017958   0.014603  -0.203236  -0.000178
     2  C    0.014476   0.089232   0.016643   0.014261  -0.219369   0.011597
     3  C    0.017958   0.016643   0.000073  -0.006654  -0.085592   0.007658
     4  C    0.014603   0.014261  -0.006654   0.013924  -0.021199  -0.000552
     5  C   -0.203236  -0.219369  -0.085592  -0.021199   1.513693  -0.022664
     6  H   -0.000178   0.011597   0.007658  -0.000552  -0.022664   0.010300
     7  H    0.000173   0.043745  -0.005347   0.006528  -0.060403   0.003928
     8  H    0.009121  -0.032793   0.005469  -0.001434   0.014308  -0.006358
     9  H    0.000141   0.010895   0.017909  -0.000382  -0.035201   0.001146
    10  H    0.005825  -0.018624   0.004649   0.001051   0.002565  -0.001020
    11  H    0.004354   0.010320   0.006519   0.000298  -0.032013   0.000276
    12  H   -0.007914  -0.007249  -0.003719  -0.001921   0.027415  -0.000238
    13  H   -0.000739  -0.001019   0.000982  -0.002163   0.002547   0.000004
    14  H   -0.004327   0.007392   0.000991   0.001666  -0.011346   0.000243
               7          8          9         10         11         12
     1  O    0.000173   0.009121   0.000141   0.005825   0.004354  -0.007914
     2  C    0.043745  -0.032793   0.010895  -0.018624   0.010320  -0.007249
     3  C   -0.005347   0.005469   0.017909   0.004649   0.006519  -0.003719
     4  C    0.006528  -0.001434  -0.000382   0.001051   0.000298  -0.001921
     5  C   -0.060403   0.014308  -0.035201   0.002565  -0.032013   0.027415
     6  H    0.003928  -0.006358   0.001146  -0.001020   0.000276  -0.000238
     7  H    0.041354  -0.017267   0.000503  -0.000768   0.000333  -0.003571
     8  H   -0.017267   0.079464  -0.001138   0.004796  -0.000720   0.001297
     9  H    0.000503  -0.001138   0.016651  -0.008421   0.004918  -0.000089
    10  H   -0.000768   0.004796  -0.008421   0.070489  -0.012845   0.000197
    11  H    0.000333  -0.000720   0.004918  -0.012845   0.029957  -0.000276
    12  H   -0.003571   0.001297  -0.000089   0.000197  -0.000276   0.006286
    13  H    0.000029  -0.000048   0.000001  -0.000010   0.000000   0.000614
    14  H    0.003992  -0.004102   0.000050  -0.000298   0.000135  -0.004498
              13         14
     1  O   -0.000739  -0.004327
     2  C   -0.001019   0.007392
     3  C    0.000982   0.000991
     4  C   -0.002163   0.001666
     5  C    0.002547  -0.011346
     6  H    0.000004   0.000243
     7  H    0.000029   0.003992
     8  H   -0.000048  -0.004102
     9  H    0.000001   0.000050
    10  H   -0.000010  -0.000298
    11  H    0.000000   0.000135
    12  H    0.000614  -0.004498
    13  H   -0.001256   0.000342
    14  H    0.000342   0.010975
 Mulliken charges and spin densities:
               1          2
     1  O   -0.110809   0.054802
     2  C   -0.394088  -0.060495
     3  C   -0.479429  -0.022462
     4  C   -0.280737   0.018024
     5  C   -0.010394   0.869504
     6  H    0.140886   0.004139
     7  H    0.143925   0.013231
     8  H    0.157603   0.050596
     9  H    0.137460   0.006984
    10  H    0.140170   0.047587
    11  H    0.147989   0.011256
    12  H    0.135789   0.006332
    13  H    0.135731  -0.000715
    14  H    0.135905   0.001215
 Sum of Mulliken charges =  -0.00000   1.00000
 Mulliken charges and spin densities with hydrogens summed into heavy atoms:
               1          2
     1  O   -0.110809   0.054802
     2  C    0.048325   0.007472
     3  C   -0.053810   0.043366
     4  C    0.126688   0.024856
     5  C   -0.010394   0.869504
 APT charges:
               1
     1  O   -0.090065
     2  C   -1.170378
     3  C   -1.225292
     4  C   -1.183248
     5  C    0.172962
     6  H    0.440220
     7  H    0.356643
     8  H    0.328143
     9  H    0.444273
    10  H    0.338473
    11  H    0.384519
    12  H    0.342281
    13  H    0.524470
    14  H    0.336998
 Sum of APT charges =  -0.00000
 APT charges with hydrogens summed into heavy atoms:
               1
     1  O   -0.090065
     2  C   -0.045371
     3  C   -0.058027
     4  C    0.020502
     5  C    0.172962
 Electronic spatial extent (au):  <R**2>=            491.0516
 Charge=             -0.0000 electrons
 Dipole moment (field-independent basis, Debye):
    X=             -0.4681    Y=              1.1141    Z=              0.0140  Tot=              1.2086
 Quadrupole moment (field-independent basis, Debye-Ang):
   XX=            -29.1359   YY=            -33.4931   ZZ=            -33.9449
   XY=             -0.2091   XZ=              0.1940   YZ=              0.3085
 Traceless Quadrupole moment (field-independent basis, Debye-Ang):
   XX=              3.0554   YY=             -1.3018   ZZ=             -1.7536
   XY=             -0.2091   XZ=              0.1940   YZ=              0.3085
 Octapole moment (field-independent basis, Debye-Ang**2):
  XXX=             -9.3517  YYY=             -2.8929  ZZZ=              2.7277  XYY=             -0.7475
  XXY=             -1.8606  XXZ=             -0.7304  XZZ=             -1.7098  YZZ=             -0.3490
  YYZ=             -0.7377  XYZ=             -0.2557
 Hexadecapole moment (field-independent basis, Debye-Ang**3):
 XXXX=           -389.0446 YYYY=           -215.1077 ZZZZ=            -62.4323 XXXY=             11.5544
 XXXZ=             -4.9182 YYYX=              1.5641 YYYZ=             -0.2862 ZZZX=              2.3713
 ZZZY=              0.2589 XXYY=            -98.5804 XXZZ=            -76.7640 YYZZ=            -45.9502
 XXYZ=             -2.1678 YYXZ=             -1.9012 ZZXY=             -0.4237
 N-N= 1.874187535556D+02 E-N=-9.177053730630D+02  KE= 2.320634220853D+02
  Exact polarizability:   0.000   0.000   0.000   0.000   0.000   0.000
 Approx polarizability:  64.496   0.140  61.027   0.337  -0.221  58.872
                          Isotropic Fermi Contact Couplings
        Atom                 a.u.       MegaHertz       Gauss      10(-4) cm-1
     1  O(17)              0.02121     -12.85887      -4.58836      -4.28926
     2  C(13)             -0.00241      -2.70971      -0.96689      -0.90386
     3  C(13)             -0.01393     -15.65961      -5.58774      -5.22348
     4  C(13)              0.00383       4.30331       1.53553       1.43543
     5  C(13)              0.23248     261.34852      93.25565      87.17648
     6  H(1)               0.00093       4.14367       1.47856       1.38218
     7  H(1)               0.00835      37.32148      13.31723      12.44911
     8  H(1)               0.02270     101.48513      36.21242      33.85179
     9  H(1)               0.00343      15.34836       5.47668       5.11966
    10  H(1)               0.02217      99.10563      35.36335      33.05808
    11  H(1)               0.00563      25.16411       8.97918       8.39384
    12  H(1)               0.00166       7.43826       2.65416       2.48114
    13  H(1)              -0.00045      -2.01745      -0.71988      -0.67295
    14  H(1)               0.00151       6.74889       2.40817       2.25119
 --------------------------------------------------------
       Center         ----  Spin Dipole Couplings  ----
                      3XX-RR        3YY-RR        3ZZ-RR
 --------------------------------------------------------
     1   Atom       -0.312955     -0.324638      0.637593
     2   Atom       -0.015965      0.027835     -0.011870
     3   Atom        0.010185     -0.003370     -0.006814
     4   Atom        0.018617     -0.007176     -0.011441
     5   Atom       -0.488143     -0.505326      0.993470
     6   Atom       -0.006047      0.014214     -0.008167
     7   Atom       -0.005836      0.014870     -0.009034
     8   Atom       -0.008548      0.007734      0.000814
     9   Atom        0.018417     -0.009781     -0.008635
    10   Atom        0.004620     -0.004116     -0.000503
    11   Atom       -0.000063      0.008744     -0.008681
    12   Atom        0.013815     -0.007491     -0.006324
    13   Atom        0.009017     -0.004843     -0.004174
    14   Atom        0.007311     -0.003508     -0.003803
 --------------------------------------------------------
                        XY            XZ            YZ
 --------------------------------------------------------
     1   Atom       -0.034766     -0.026547      0.118764
     2   Atom       -0.001408      0.001670      0.014978
     3   Atom       -0.012860      0.008797     -0.005575
     4   Atom       -0.003614     -0.005789     -0.000085
     5   Atom        0.002539      0.165693      0.063847
     6   Atom        0.011206      0.000699      0.001252
     7   Atom       -0.010606     -0.000277     -0.000392
     8   Atom       -0.000446     -0.001027      0.009818
     9   Atom       -0.004036     -0.000462      0.000678
    10   Atom       -0.006882      0.008595     -0.004486
    11   Atom       -0.013548     -0.000056     -0.000982
    12   Atom       -0.001953      0.004858     -0.001265
    13   Atom        0.003136     -0.001418     -0.000375
    14   Atom       -0.004925     -0.005195      0.001431
 --------------------------------------------------------


 ---------------------------------------------------------------------------------
              Anisotropic Spin Dipole Couplings in Principal Axis System
 ---------------------------------------------------------------------------------

       Atom             a.u.   MegaHertz   Gauss  10(-4) cm-1        Axes

              Baa    -0.3602    26.066     9.301     8.695  0.5597  0.8245 -0.0832
     1 O(17)  Bbb    -0.2928    21.185     7.559     7.067  0.8281 -0.5526  0.0942
              Bcc     0.6530   -47.251   -16.860   -15.761 -0.0316  0.1216  0.9921
 
              Baa    -0.0185    -2.484    -0.886    -0.829 -0.6251 -0.2572  0.7370
     2 C(13)  Bbb    -0.0144    -1.926    -0.687    -0.642  0.7804 -0.1859  0.5970
              Bcc     0.0329     4.410     1.574     1.471 -0.0165  0.9483  0.3169
 
              Baa    -0.0112    -1.504    -0.537    -0.502  0.3881  0.8644  0.3198
     3 C(13)  Bbb    -0.0105    -1.413    -0.504    -0.471 -0.4520 -0.1239  0.8834
              Bcc     0.0217     2.917     1.041     0.973  0.8032 -0.4874  0.3426
 
              Baa    -0.0126    -1.694    -0.605    -0.565  0.1965  0.1453  0.9697
     4 C(13)  Bbb    -0.0075    -1.010    -0.360    -0.337  0.0986  0.9810 -0.1670
              Bcc     0.0202     2.704     0.965     0.902  0.9755 -0.1284 -0.1784
 
              Baa    -0.5118   -68.675   -24.505   -22.908  0.6365  0.7644 -0.1025
     5 C(13)  Bbb    -0.5027   -67.454   -24.069   -22.500  0.7634 -0.6434 -0.0571
              Bcc     1.0144   136.129    48.574    45.408  0.1096  0.0419  0.9931
 
              Baa    -0.0110    -5.885    -2.100    -1.963  0.9139 -0.4033 -0.0468
     6 H(1)   Bbb    -0.0082    -4.394    -1.568    -1.466  0.0217 -0.0665  0.9976
              Bcc     0.0193    10.278     3.668     3.429  0.4055  0.9126  0.0520
 
              Baa    -0.0104    -5.562    -1.985    -1.855  0.8833  0.3747  0.2817
     7 H(1)   Bbb    -0.0089    -4.757    -1.698    -1.587 -0.2630 -0.1015  0.9594
              Bcc     0.0193    10.319     3.682     3.442 -0.3881  0.9216 -0.0089
 
              Baa    -0.0087    -4.651    -1.660    -1.551  0.9749 -0.0940  0.2019
     8 H(1)   Bbb    -0.0060    -3.204    -1.143    -1.069 -0.2189 -0.5720  0.7905
              Bcc     0.0147     7.856     2.803     2.620 -0.0411  0.8149  0.5782
 
              Baa    -0.0105    -5.624    -2.007    -1.876  0.1267  0.9439 -0.3048
     9 H(1)   Bbb    -0.0085    -4.510    -1.609    -1.504  0.0613  0.2993  0.9522
              Bcc     0.0190    10.134     3.616     3.380  0.9900 -0.1393 -0.0200
 
              Baa    -0.0079    -4.229    -1.509    -1.411  0.5414  0.8315 -0.1243
    10 H(1)   Bbb    -0.0067    -3.570    -1.274    -1.191 -0.3989  0.3842  0.8326
              Bcc     0.0146     7.799     2.783     2.601  0.7401 -0.4011  0.5397
 
              Baa    -0.0102    -5.426    -1.936    -1.810  0.7387  0.5494  0.3903
    11 H(1)   Bbb    -0.0084    -4.502    -1.607    -1.502 -0.3311 -0.2085  0.9203
              Bcc     0.0186     9.928     3.543     3.312 -0.5870  0.8091 -0.0279
 
              Baa    -0.0084    -4.468    -1.594    -1.490 -0.0744  0.7603  0.6454
    12 H(1)   Bbb    -0.0068    -3.609    -1.288    -1.204 -0.2333 -0.6425  0.7299
              Bcc     0.0151     8.076     2.882     2.694  0.9696 -0.0963  0.2252
 
              Baa    -0.0055    -2.947    -1.052    -0.983 -0.2053  0.9771  0.0560
    13 H(1)   Bbb    -0.0043    -2.307    -0.823    -0.769  0.1134 -0.0331  0.9930
              Bcc     0.0098     5.254     1.875     1.752  0.9721  0.2102 -0.1040
 
              Baa    -0.0061    -3.256    -1.162    -1.086  0.4623  0.4590  0.7587
    14 H(1)   Bbb    -0.0050    -2.689    -0.960    -0.897  0.0947  0.8251 -0.5570
              Bcc     0.0111     5.945     2.121     1.983  0.8816 -0.3294 -0.3380
 

 ---------------------------------------------------------------------------------

 No NMR shielding tensors so no spin-rotation constants.
 Leave Link  601 at Sat Mar  9 13:26:29 2019, MaxMem=   671088640 cpu:               9.6 elap:               0.5
 (Enter /shared/centos7/gaussian/g16/l701.exe)
 ... and contract with generalized density number  0.
 Compute integral second derivatives.
 Leave Link  701 at Sat Mar  9 13:26:29 2019, MaxMem=   671088640 cpu:               6.1 elap:               0.3
 (Enter /shared/centos7/gaussian/g16/l702.exe)
 L702 exits ... SP integral derivatives will be done elsewhere.
 Leave Link  702 at Sat Mar  9 13:26:29 2019, MaxMem=   671088640 cpu:               0.4 elap:               0.0
 (Enter /shared/centos7/gaussian/g16/l703.exe)
 Integral derivatives from FoFJK, PRISM(SPDF).
 Compute integral second derivatives, UseDBF=F ICtDFT=           0.
 Calling FoFJK, ICntrl=    100147 FMM=F ISym2X=0 I1Cent= 0 IOpClX= 1 NMat=1 NMatS=1 NMatT=0.
 FoFJK:  IHMeth= 1 ICntrl=  100147 DoSepK=F KAlg= 0 I1Cent=           0 FoldK=F
 IRaf=         0 NMat=       1 IRICut=       1 DoRegI=T DoRafI=F ISym2E= 0 IDoP0=0 IntGTp=1.
 FoFCou: FMM=F IPFlag=           0 FMFlag=      100000 FMFlg1=         800
         NFxFlg=           0 DoJE=F BraDBF=F KetDBF=F FulRan=T
         wScrn=  0.000000 ICntrl=    100147 IOpCl=  1 I1Cent=           0 NGrid=           0
         NMat0=    1 NMatS0=      1 NMatT0=    0 NMatD0=    1 NMtDS0=    0 NMtDT0=    0
 Symmetry not used in FoFCou.
 Leave Link  703 at Sat Mar  9 13:27:49 2019, MaxMem=   671088640 cpu:            1597.8 elap:              79.9
 (Enter /shared/centos7/gaussian/g16/l716.exe)
 Dipole        =-1.84180924D-01 4.38330818D-01 5.52615199D-03
 Polarizability= 0.00000000D+00 0.00000000D+00 0.00000000D+00
                 0.00000000D+00 0.00000000D+00 0.00000000D+00
 ***** Axes restored to original set *****
 -------------------------------------------------------------------
 Center     Atomic                   Forces (Hartrees/Bohr)
 Number     Number              X              Y              Z
 -------------------------------------------------------------------
      1        8          -0.000000022    0.000000615   -0.000000939
      2        6          -0.000000088   -0.000000461    0.000001303
      3        6           0.000000144   -0.000000176   -0.000000594
      4        6          -0.000000130    0.000000562   -0.000000718
      5        6           0.000000162   -0.000000248   -0.000000166
      6        1           0.000000086   -0.000001188    0.000001788
      7        1           0.000000034   -0.000000840    0.000001468
      8        1          -0.000000512    0.000000407    0.000001858
      9        1           0.000000395   -0.000001000   -0.000000122
     10        1          -0.000000210    0.000000711   -0.000000254
     11        1           0.000000391   -0.000000171   -0.000001678
     12        1           0.000000292   -0.000000388   -0.000000731
     13        1          -0.000000147    0.000001215   -0.000001495
     14        1          -0.000000394    0.000000962    0.000000279
 -------------------------------------------------------------------
 Cartesian Forces:  Max     0.000001858 RMS     0.000000792
 FormGI is forming the generalized inverse of G from B-inverse, IUseBI=4.
 Leave Link  716 at Sat Mar  9 13:27:49 2019, MaxMem=   671088640 cpu:               0.5 elap:               0.0
 (Enter /shared/centos7/gaussian/g16/l103.exe)

 GradGradGradGradGradGradGradGradGradGradGradGradGradGradGradGradGradGrad
 Berny optimization.
 Red2BG is reusing G-inverse.
 Internal  Forces:  Max     0.000000043 RMS     0.000000010
 Search for a local minimum.
 Step number   1 out of a maximum of   63 on scan point     1 out of    73
 All quantities printed in internal units (Hartrees-Bohrs-Radians)
 RMS Force = .10267D-07 SwitMx=.10000D-02 MixMth= 2
 Mixed Optimization -- En-DIIS/RFO-DIIS
 Second derivative matrix not updated -- analytic derivatives used.
 ITU=  0
     Eigenvalues ---    0.00190   0.00248   0.00591   0.01515   0.05545
     Eigenvalues ---    0.05580   0.05604   0.05730   0.08466   0.08754
     Eigenvalues ---    0.11840   0.12068   0.12410   0.13033   0.13387
     Eigenvalues ---    0.13761   0.14115   0.16586   0.18147   0.18895
     Eigenvalues ---    0.21018   0.27235   0.30691   0.31581   0.32460
     Eigenvalues ---    0.32775   0.33288   0.33874   0.34602   0.34783
     Eigenvalues ---    0.35028   0.35155   0.35651   0.39769   0.49969
     Eigenvalues --- 1000.000001000.000001000.000001000.000001000.00000
     Eigenvalues --- 1000.000001000.000001000.000001000.000001000.00000
     Eigenvalues --- 1000.000001000.000001000.000001000.000001000.00000
     Eigenvalues --- 1000.000001000.000001000.00000
 RFO step:  Lambda= 0.00000000D+00 EMin= 1.89635209D-03
 Linear search not attempted -- first point.
 Iteration  1 RMS(Cart)=  0.00000125 RMS(Int)=  0.00000000
 Iteration  2 RMS(Cart)=  0.00000000 RMS(Int)=  0.00000000
 Iteration  1 RMS(Cart)=  0.00000000 RMS(Int)=  0.00000000
 ITry= 1 IFail=0 DXMaxC= 3.98D-06 DCOld= 1.00D+10 DXMaxT= 3.00D-01 DXLimC= 3.00D+00 Rises=F
 Variable       Old X    -DE/DX   Delta X   Delta X   Delta X     New X
                                 (Linear)    (Quad)   (Total)
    R1        2.66405  -0.00000   0.00000  -0.00000  -0.00000   2.66405
    R2        2.58359  -0.00000   0.00000  -0.00000  -0.00000   2.58359
    R3        2.82237   0.00000   0.00000   0.00000   0.00000   2.82237
    R4        2.05634   0.00000   0.00000   0.00000   0.00000   2.05634
    R5        2.05970   0.00000   0.00000  -0.00000  -0.00000   2.05970
    R6        2.07856  -0.00000   0.00000  -0.00000  -0.00000   2.07856
    R7        2.81113   0.00000   0.00000   0.00000   0.00000   2.81113
    R8        2.05753  -0.00000   0.00000  -0.00000  -0.00000   2.05753
    R9        2.07610  -0.00000   0.00000  -0.00000  -0.00000   2.07610
   R10        2.05807  -0.00000   0.00000  -0.00000  -0.00000   2.05807
   R11        2.06558   0.00000   0.00000   0.00000   0.00000   2.06558
   R12        2.05305   0.00000   0.00000   0.00000   0.00000   2.05305
   R13        2.06354   0.00000   0.00000   0.00000   0.00000   2.06354
    A1        2.04272  -0.00000   0.00000  -0.00000  -0.00000   2.04272
    A2        1.91094   0.00000   0.00000  -0.00000  -0.00000   1.91094
    A3        1.97049  -0.00000   0.00000   0.00000   0.00000   1.97049
    A4        1.94441  -0.00000   0.00000  -0.00000  -0.00000   1.94441
    A5        1.88218   0.00000   0.00000   0.00000   0.00000   1.88218
    A6        1.87753   0.00000   0.00000  -0.00000  -0.00000   1.87753
    A7        1.87490   0.00000   0.00000   0.00000   0.00000   1.87490
    A8        1.93225  -0.00000   0.00000  -0.00000  -0.00000   1.93225
    A9        1.94469   0.00000   0.00000   0.00000   0.00000   1.94469
   A10        1.92805  -0.00000   0.00000  -0.00000  -0.00000   1.92805
   A11        1.87987   0.00000   0.00000  -0.00000  -0.00000   1.87987
   A12        1.90106   0.00000   0.00000   0.00000   0.00000   1.90106
   A13        1.87609   0.00000   0.00000   0.00000   0.00000   1.87609
   A14        1.93355   0.00000   0.00000   0.00000   0.00000   1.93355
   A15        1.86261   0.00000   0.00000   0.00000   0.00000   1.86261
   A16        1.94852   0.00000   0.00000   0.00000   0.00000   1.94852
   A17        1.90914  -0.00000   0.00000  -0.00000  -0.00000   1.90914
   A18        1.90576  -0.00000   0.00000  -0.00000  -0.00000   1.90576
   A19        1.90342  -0.00000   0.00000  -0.00000  -0.00000   1.90342
   A20        2.06855   0.00000   0.00000   0.00000   0.00000   2.06855
   A21        1.94307   0.00000   0.00000   0.00000   0.00000   1.94307
   A22        2.08808  -0.00000   0.00000  -0.00000  -0.00000   2.08808
    D1        0.92544  -0.00000   0.00000  -0.00000  -0.00000   0.92544
    D2        3.00228  -0.00000   0.00000  -0.00000  -0.00000   3.00227
    D3       -1.20263  -0.00000   0.00000  -0.00000  -0.00000  -1.20263
    D4        0.68092   0.00000   0.00000   0.00000   0.00000   0.68092
    D5       -3.07636  -0.00000   0.00000   0.00000   0.00000  -3.07636
    D6        2.71800  -0.00000   0.00000   0.00000   0.00000   2.71800
    D7       -3.12018   0.00000   0.00000   0.00000   0.00000  -3.12018
    D8        0.68880  -0.00000   0.00000   0.00000   0.00000   0.68881
    D9       -1.02312   0.00000   0.00000   0.00000   0.00000  -1.02312
   D10        2.78586   0.00000   0.00000   0.00000   0.00000   2.78586
   D11        1.08840   0.00000   0.00000   0.00000   0.00000   1.08840
   D12       -1.38581   0.00000   0.00000   0.00000   0.00000  -1.38581
   D13        2.90632  -0.00000   0.00000  -0.00000  -0.00000   2.90632
   D14       -0.85871  -0.00000   0.00000  -0.00000  -0.00000  -0.85871
   D15       -1.28517  -0.00000   0.00000  -0.00000  -0.00000  -1.28517
   D16        1.23299   0.00000   0.00000  -0.00000  -0.00000   1.23299
   D17        0.79897  -0.00000   0.00000  -0.00000  -0.00000   0.79897
   D18       -2.96606   0.00000   0.00000  -0.00000  -0.00000  -2.96606
         Item               Value     Threshold  Converged?
 Maximum Force            0.000000     0.000450     YES
 RMS     Force            0.000000     0.000300     YES
 Maximum Displacement     0.000004     0.001800     YES
 RMS     Displacement     0.000001     0.001200     YES
 Predicted change in Energy=-6.075802D-14
 Optimization completed.
    -- Stationary point found.
                           ----------------------------
                           !   Optimized Parameters   !
                           ! (Angstroms and Degrees)  !
 --------------------------                            --------------------------
 ! Name  Definition              Value          Derivative Info.                !
 --------------------------------------------------------------------------------
 ! R1    R(1,4)                  1.4098         -DE/DX =    0.0                 !
 ! R2    R(1,5)                  1.3672         -DE/DX =    0.0                 !
 ! R3    R(2,5)                  1.4935         -DE/DX =    0.0                 !
 ! R4    R(2,6)                  1.0882         -DE/DX =    0.0                 !
 ! R5    R(2,7)                  1.0899         -DE/DX =    0.0                 !
 ! R6    R(2,8)                  1.0999         -DE/DX =    0.0                 !
 ! R7    R(3,5)                  1.4876         -DE/DX =    0.0                 !
 ! R8    R(3,9)                  1.0888         -DE/DX =    0.0                 !
 ! R9    R(3,10)                 1.0986         -DE/DX =    0.0                 !
 ! R10   R(3,11)                 1.0891         -DE/DX =    0.0                 !
 ! R11   R(4,12)                 1.0931         -DE/DX =    0.0                 !
 ! R12   R(4,13)                 1.0864         -DE/DX =    0.0                 !
 ! R13   R(4,14)                 1.092          -DE/DX =    0.0                 !
 ! A1    A(4,1,5)              117.0393         -DE/DX =    0.0                 !
 ! A2    A(5,2,6)              109.4889         -DE/DX =    0.0                 !
 ! A3    A(5,2,7)              112.9008         -DE/DX =    0.0                 !
 ! A4    A(5,2,8)              111.4065         -DE/DX =    0.0                 !
 ! A5    A(6,2,7)              107.841          -DE/DX =    0.0                 !
 ! A6    A(6,2,8)              107.5746         -DE/DX =    0.0                 !
 ! A7    A(7,2,8)              107.4241         -DE/DX =    0.0                 !
 ! A8    A(5,3,9)              110.7095         -DE/DX =    0.0                 !
 ! A9    A(5,3,10)             111.4227         -DE/DX =    0.0                 !
 ! A10   A(5,3,11)             110.4689         -DE/DX =    0.0                 !
 ! A11   A(9,3,10)             107.7089         -DE/DX =    0.0                 !
 ! A12   A(9,3,11)             108.9229         -DE/DX =    0.0                 !
 ! A13   A(10,3,11)            107.492          -DE/DX =    0.0                 !
 ! A14   A(1,4,12)             110.7844         -DE/DX =    0.0                 !
 ! A15   A(1,4,13)             106.7199         -DE/DX =    0.0                 !
 ! A16   A(1,4,14)             111.6419         -DE/DX =    0.0                 !
 ! A17   A(12,4,13)            109.3855         -DE/DX =    0.0                 !
 ! A18   A(12,4,14)            109.1918         -DE/DX =    0.0                 !
 ! A19   A(13,4,14)            109.0577         -DE/DX =    0.0                 !
 ! A20   A(1,5,2)              118.519          -DE/DX =    0.0                 !
 ! A21   A(1,5,3)              111.3297         -DE/DX =    0.0                 !
 ! A22   A(2,5,3)              119.638          -DE/DX =    0.0                 !
[...]
 Coeff-Com: -0.604D-03 0.757D-02-0.301D-01-0.406D-01-0.112D+00 0.324D+00
 Coeff-Com:  0.851D+00
 Coeff:     -0.604D-03 0.757D-02-0.301D-01-0.406D-01-0.112D+00 0.324D+00
 Coeff:      0.851D+00
 Gap=     0.238 Goal=   None    Shift=    0.000
 Gap=     0.343 Goal=   None    Shift=    0.000
 RMSDP=5.15D-08 MaxDP=1.72D-06 DE=-5.72D-10 OVMax= 9.64D-06

 Cycle   8  Pass 1  IDiag  1:
 RMSU=  2.66D-08    CP:  1.00D+00  1.24D+00  1.34D+00  1.15D+00  1.29D+00
                    CP:  1.44D+00  1.24D+00
 E= -232.962195601183     Delta-E=       -0.000000000085 Rises=F Damp=F
 DIIS: error= 1.05D-07 at cycle   8 NSaved=   8.
 NSaved= 8 IEnMin= 8 EnMin= -232.962195601183     IErMin= 8 ErrMin= 1.05D-07
 ErrMax= 1.05D-07  0.00D+00 EMaxC= 1.00D-01 BMatC= 1.33D-11 BMatP= 1.44D-10
 IDIUse=1 WtCom= 1.00D+00 WtEn= 0.00D+00
 Coeff-Com: -0.148D-04-0.228D-03 0.591D-02 0.214D-02-0.366D-01-0.770D-01
 Coeff-Com:  0.159D+00 0.947D+00
 Coeff:     -0.148D-04-0.228D-03 0.591D-02 0.214D-02-0.366D-01-0.770D-01
 Coeff:      0.159D+00 0.947D+00
 Gap=     0.238 Goal=   None    Shift=    0.000
 Gap=     0.343 Goal=   None    Shift=    0.000
 RMSDP=2.35D-08 MaxDP=1.19D-06 DE=-8.53D-11 OVMax= 3.15D-06

 Cycle   9  Pass 1  IDiag  1:
 RMSU=  1.17D-08    CP:  1.00D+00  1.24D+00  1.34D+00  1.15D+00  1.28D+00
                    CP:  1.49D+00  1.42D+00  1.17D+00
 E= -232.962195601193     Delta-E=       -0.000000000010 Rises=F Damp=F
 DIIS: error= 3.67D-08 at cycle   9 NSaved=   9.
 NSaved= 9 IEnMin= 9 EnMin= -232.962195601193     IErMin= 9 ErrMin= 3.67D-08
 ErrMax= 3.67D-08  0.00D+00 EMaxC= 1.00D-01 BMatC= 1.28D-12 BMatP= 1.33D-11
 IDIUse=1 WtCom= 1.00D+00 WtEn= 0.00D+00
 Coeff-Com:  0.719D-04-0.975D-03 0.460D-02 0.511D-02 0.508D-02-0.476D-01
 Coeff-Com: -0.690D-01 0.149D+00 0.954D+00
 Coeff:      0.719D-04-0.975D-03 0.460D-02 0.511D-02 0.508D-02-0.476D-01
 Coeff:     -0.690D-01 0.149D+00 0.954D+00
 Gap=     0.238 Goal=   None    Shift=    0.000
 Gap=     0.343 Goal=   None    Shift=    0.000
 RMSDP=9.51D-09 MaxDP=5.69D-07 DE=-1.03D-11 OVMax= 8.41D-07

 SCF Done:  E(UM062X) =  -232.962195601     A.U. after    9 cycles
            NFock=  9  Conv=0.95D-08     -V/T= 2.0039
 <Sx>= 0.0000 <Sy>= 0.0000 <Sz>= 0.5000 <S**2>= 0.7547 S= 0.5024
 <L.S>= 0.000000000000E+00
 KE= 2.320605262310D+02 PE=-9.184798203979D+02 EE= 2.656689739366D+02
 Annihilation of the first spin contaminant:
 S**2 before annihilation     0.7547,   after     0.7500
 Leave Link  502 at Sat Mar  9 14:54:02 2019, MaxMem=   671088640 cpu:             552.7 elap:              27.7
 (Enter /shared/centos7/gaussian/g16/l701.exe)
 ... and contract with generalized density number  0.
 Compute integral first derivatives.
 Leave Link  701 at Sat Mar  9 14:54:03 2019, MaxMem=   671088640 cpu:               4.4 elap:               0.2
 (Enter /shared/centos7/gaussian/g16/l702.exe)
 L702 exits ... SP integral derivatives will be done elsewhere.
 Leave Link  702 at Sat Mar  9 14:54:03 2019, MaxMem=   671088640 cpu:               0.3 elap:               0.0
 (Enter /shared/centos7/gaussian/g16/l703.exe)
 Integral derivatives from FoFJK, PRISM(SPDF).
 Compute integral first derivatives, UseDBF=F ICtDFT=           0.
 Calling FoFJK, ICntrl=      2127 FMM=F ISym2X=0 I1Cent= 0 IOpClX= 1 NMat=1 NMatS=1 NMatT=0.
 FoFJK:  IHMeth= 1 ICntrl=    2127 DoSepK=F KAlg= 0 I1Cent=           0 FoldK=F
 IRaf=         0 NMat=       1 IRICut=       1 DoRegI=T DoRafI=F ISym2E= 0 IDoP0=0 IntGTp=1.
 FoFCou: FMM=F IPFlag=           0 FMFlag=      100000 FMFlg1=         800
         NFxFlg=           0 DoJE=F BraDBF=F KetDBF=F FulRan=T
         wScrn=  0.000000 ICntrl=      2127 IOpCl=  1 I1Cent=           0 NGrid=           0
         NMat0=    1 NMatS0=      1 NMatT0=    0 NMatD0=    1 NMtDS0=    0 NMtDT0=    0
 Symmetry not used in FoFCou.
 Leave Link  703 at Sat Mar  9 14:54:08 2019, MaxMem=   671088640 cpu:             115.5 elap:               5.8
 (Enter /shared/centos7/gaussian/g16/l716.exe)
 Dipole        =-2.00556925D-02 2.49798009D-01 5.86278562D-01
 ***** Axes restored to original set *****
 -------------------------------------------------------------------
 Center     Atomic                   Forces (Hartrees/Bohr)
 Number     Number              X              Y              Z
 -------------------------------------------------------------------
      1        8          -0.000092633   -0.000429457    0.000545957
      2        6          -0.000031614    0.000005517   -0.000034790
      3        6           0.000014227    0.000135442    0.000621523
      4        6           0.000032166   -0.000054877   -0.000009464
      5        6           0.000013099   -0.000076610   -0.000935871
      6        1           0.000005411   -0.000002846    0.000000393
      7        1           0.000012692   -0.000019482   -0.000003600
      8        1          -0.000040532    0.000008037   -0.000004917
      9        1           0.000009135    0.000007801    0.000011643
     10        1          -0.000002040    0.000007209    0.000009384
     11        1          -0.000009721   -0.000007497    0.000008699
     12        1           0.000006072   -0.000003262    0.000017608
     13        1           0.000001121   -0.000003669   -0.000007109
     14        1           0.000082616    0.000433693   -0.000219455
 -------------------------------------------------------------------
 Cartesian Forces:  Max     0.000935871 RMS     0.000219884
 Leave Link  716 at Sat Mar  9 14:54:08 2019, MaxMem=   671088640 cpu:               0.3 elap:               0.0
 (Enter /shared/centos7/gaussian/g16/l103.exe)

 GradGradGradGradGradGradGradGradGradGradGradGradGradGradGradGradGradGrad
 Berny optimization.
 Using GEDIIS/GDIIS optimizer.
 FormGI is forming the generalized inverse of G from B-inverse, IUseBI=4.
 Internal  Forces:  Max     0.000767139 RMS     0.000164905
 Search for a local minimum.
 Step number   3 out of a maximum of   63 on scan point    29 out of    73
 All quantities printed in internal units (Hartrees-Bohrs-Radians)
 RMS Force = .36382D-04 SwitMx=.10000D-02 MixMth= 2
 Mixed Optimization -- En-DIIS/RFO-DIIS
 Swapping is turned off.
 Update second derivatives using D2CorX and points    1    2    3
 DE= -3.47D-06 DEPred=-4.08D-06 R= 8.50D-01
 TightC=F SS=  1.41D+00  RLast= 4.54D-02 DXNew= 9.5989D-01 1.3632D-01
 Trust test= 8.50D-01 RLast= 4.54D-02 DXMaxT set to 5.71D-01
 ITU=  1  1  0
     Eigenvalues ---    0.00158   0.00200   0.00439   0.00855   0.05473
     Eigenvalues ---    0.05574   0.05647   0.05793   0.08339   0.08692
     Eigenvalues ---    0.11851   0.11971   0.12338   0.13173   0.13403
     Eigenvalues ---    0.13840   0.14655   0.16583   0.18295   0.18434
     Eigenvalues ---    0.20432   0.22149   0.31054   0.31095   0.32563
     Eigenvalues ---    0.32952   0.33573   0.34063   0.34505   0.34792
     Eigenvalues ---    0.35052   0.35179   0.35700   0.39309   0.47522
     Eigenvalues --- 1000.000001000.000001000.000001000.000001000.00000
     Eigenvalues --- 1000.000001000.000001000.000001000.000001000.00000
     Eigenvalues --- 1000.000001000.000001000.000001000.000001000.00000
     Eigenvalues --- 1000.000001000.000001000.00000
 En-DIIS/RFO-DIIS/Sim-DIIS IScMMF=       -3 using points:     3    2
 RFO step:  Lambda=-1.27936299D-06.
 NNeg= 0 NGDIIS= 2 SimSw=  2.50D-03 Rises=F DC= -3.47D-06 SmlDif=  1.00D-05
 NRisDI= 0 DoIntr=F SqrtH=F CThrHd= 10.0 CDAdj=  3.0
 RMS Error=  0.3011629803D-02 NUsed= 2 OKEnD=F EnDIS=F
 InvSVX:  RCond= 2.32D-03 Info=           0 Equed=N FErr=  1.38D-15 BErr=  9.34D-17
 DidBck=T Rises=F RFO-DIIS coefs:    0.76338    0.23662
 Iteration  1 RMS(Cart)=  0.00410517 RMS(Int)=  0.00001468
 Iteration  2 RMS(Cart)=  0.00001545 RMS(Int)=  0.00000105
 Iteration  3 RMS(Cart)=  0.00000000 RMS(Int)=  0.00000105
 Iteration  1 RMS(Cart)=  0.00000062 RMS(Int)=  0.00000031
 ITry= 1 IFail=0 DXMaxC= 1.41D-02 DCOld= 1.00D+10 DXMaxT= 5.71D-01 DXLimC= 3.00D+00 Rises=F
 Variable       Old X    -DE/DX   Delta X   Delta X   Delta X     New X
                                 (Linear)    (Quad)   (Total)
    R1        2.67657   0.00013   0.00020  -0.00034  -0.00014   2.67643
    R2        2.59120   0.00005   0.00003  -0.00004  -0.00001   2.59119
    R3        2.81399   0.00004   0.00004   0.00019   0.00023   2.81422
    R4        2.05844  -0.00001   0.00002   0.00004   0.00006   2.05850
    R5        2.06114  -0.00001  -0.00001  -0.00011  -0.00012   2.06101
    R6        2.07740   0.00000   0.00003  -0.00002   0.00001   2.07741
    R7        2.81227   0.00002  -0.00006   0.00031   0.00024   2.81251
    R8        2.05826  -0.00001  -0.00001   0.00004   0.00003   2.05829
    R9        2.07805  -0.00001   0.00010  -0.00022  -0.00012   2.07792
   R10        2.05963   0.00001  -0.00008   0.00011   0.00003   2.05966
   R11        2.06421  -0.00001  -0.00000  -0.00001  -0.00001   2.06419
   R12        2.05356   0.00000  -0.00000  -0.00000  -0.00000   2.05356
   R13        2.06795  -0.00017  -0.00011   0.00009  -0.00003   2.06793
    A1        2.02378   0.00013  -0.00029   0.00112   0.00082   2.02460
    A2        1.92310  -0.00001   0.00024  -0.00057  -0.00033   1.92277
    A3        1.93227  -0.00002  -0.00022   0.00020  -0.00002   1.93225
    A4        1.96842   0.00004  -0.00018   0.00049   0.00030   1.96873
    A5        1.89409   0.00001   0.00016  -0.00018  -0.00003   1.89406
    A6        1.86660  -0.00002  -0.00005  -0.00033  -0.00038   1.86622
    A7        1.87654   0.00000   0.00007   0.00037   0.00045   1.87699
    A8        1.93907  -0.00002   0.00003  -0.00013  -0.00009   1.93898
    A9        1.94793   0.00001  -0.00002  -0.00034  -0.00036   1.94757
   A10        1.92757   0.00002  -0.00007   0.00040   0.00032   1.92790
   A11        1.87449   0.00001  -0.00021   0.00046   0.00025   1.87474
   A12        1.90184  -0.00001   0.00021  -0.00047  -0.00027   1.90157
   A13        1.87058  -0.00000   0.00006   0.00008   0.00015   1.87073
   A14        1.94783  -0.00011  -0.00014   0.00014   0.00000   1.94783
   A15        1.86696   0.00000  -0.00001  -0.00001  -0.00003   1.86693
   A16        1.93327   0.00028   0.00015  -0.00007   0.00008   1.93335
   A17        1.90434  -0.00002   0.00008  -0.00019  -0.00011   1.90423
   A18        1.90562  -0.00015  -0.00015   0.00031   0.00015   1.90577
   A19        1.90495   0.00000   0.00009  -0.00020  -0.00011   1.90484
   A20        2.05465   0.00006  -0.00005   0.00052   0.00047   2.05511
   A21        2.01083  -0.00009   0.00017  -0.00074  -0.00057   2.01026
   A22        2.12089   0.00008   0.00003  -0.00147  -0.00144   2.11946
    D1        1.10756   0.00012   0.00380  -0.00567  -0.00187   1.10569
    D2       -3.09391   0.00003   0.00381  -0.00582  -0.00201  -3.09592
    D3       -1.01966   0.00019   0.00399  -0.00611  -0.00212  -1.02178
    D4       -0.93032   0.00044  -0.00170   0.00613   0.00444  -0.92589
    D5        1.76064   0.00059  -0.00137   0.00207   0.00070   1.76134
    D6        1.32174   0.00077  -0.00000   0.00000  -0.00000   1.32174
    D7       -2.81456   0.00007   0.00338   0.00269   0.00607  -2.80849
    D8        0.80755  -0.00004   0.00299   0.00678   0.00977   0.81732
    D9       -0.71917   0.00007   0.00359   0.00223   0.00581  -0.71336
   D10        2.90294  -0.00004   0.00320   0.00632   0.00952   2.91245
   D11        1.38427   0.00008   0.00340   0.00319   0.00659   1.39086
   D12       -1.27680  -0.00003   0.00301   0.00727   0.01029  -1.26651
   D13        2.91308  -0.00008   0.00044  -0.00072  -0.00029   2.91279
   D14       -0.69782   0.00006   0.00076  -0.00438  -0.00362  -0.70144
   D15       -1.27847  -0.00008   0.00018  -0.00045  -0.00027  -1.27874
   D16        1.39382   0.00007   0.00050  -0.00411  -0.00361   1.39021
   D17        0.80054  -0.00007   0.00020  -0.00030  -0.00011   0.80043
   D18       -2.81036   0.00008   0.00052  -0.00397  -0.00344  -2.81380
         Item               Value     Threshold  Converged?
 Maximum Force            0.000194     0.000450     YES
 RMS     Force            0.000036     0.000300     YES
 Maximum Displacement     0.014134     0.001800     NO 
 RMS     Displacement     0.004106     0.001200     NO 
 Predicted change in Energy=-6.319710D-07
 Lowest energy point so far.  Saving SCF results.
 GradGradGradGradGradGradGradGradGradGradGradGradGradGradGradGradGradGrad

 Leave Link  103 at Sat Mar  9 14:54:09 2019, MaxMem=   671088640 cpu:               0.5 elap:               0.1
 (Enter /shared/centos7/gaussian/g16/l202.exe)
                          Input orientation:                          
 ---------------------------------------------------------------------
 Center     Atomic      Atomic             Coordinates (Angstroms)
 Number     Number       Type             X           Y           Z
 ---------------------------------------------------------------------
      1          8           0        1.112450    0.014526    0.640541
      2          6           0       -0.796772    1.239426   -0.283576
      3          6           0       -1.038959   -1.043144    0.931342
      4          6           0        1.754545   -0.151935   -0.610828
      5          6           0       -0.248856    0.174148    0.601154
      6          1           0       -1.813549    1.490334    0.016097
      7          1           0       -0.185950    2.141097   -0.225391
      8          1           0       -0.839916    0.935968   -1.339299
      9          1           0       -2.085218   -0.795927    1.106215
     10          1           0       -1.006773   -1.779904    0.115717
     11          1           0       -0.636677   -1.528972    1.820207
     12          1           0        1.641722    0.732725   -1.241558
     13          1           0        2.810012   -0.311165   -0.407001
     14          1           0        1.355632   -1.023460   -1.138848
 ---------------------------------------------------------------------
                    Distance matrix (angstroms):
                    1          2          3          4          5
     1  O    0.000000
     2  C    2.449388   0.000000
     3  C    2.414910   2.597076   0.000000
     4  C    1.416306   2.924415   3.313036   0.000000
     5  C    1.371198   1.489221   1.488316   2.364075   0.000000
     6  H    3.336076   1.089309   2.802886   3.977610   2.126711
     7  H    2.637799   1.090642   3.493572   3.028544   2.134485
     8  H    2.929258   1.099317   3.018660   2.906103   2.166813
     9  H    3.331481   2.781056   1.089199   4.255202   2.137371
    10  H    2.826044   3.052850   1.099589   3.286797   2.151373
    11  H    2.614086   3.480742   1.089927   3.677514   2.130049
    12  H    2.082843   2.668470   3.880883   1.092324   2.698497
    13  H    2.021172   3.927907   4.140233   1.086697   3.257082
    14  H    2.074314   3.238052   3.165460   1.094300   2.652594
                    6          7          8          9         10
     6  H    0.000000
     7  H    1.769432   0.000000
     8  H    1.758516   1.766578   0.000000
     9  H    2.547381   3.742526   3.245115   0.000000
    10  H    3.369758   4.020492   3.085591   1.764183   0.000000
    11  H    3.708914   4.225758   4.012444   1.773530   1.762164
    12  H    3.754273   2.521209   2.491865   4.662499   3.894872
    13  H    4.980133   3.875868   3.968185   5.146658   4.122897
    14  H    4.206752   3.636660   2.949571   4.114794   2.779766
                   11         12         13         14
    11  H    0.000000
    12  H    4.436303   0.000000
    13  H    4.280558   1.775131   0.000000
    14  H    3.602894   1.782296   1.777129   0.000000
 Stoichiometry    C4H9O(2)
 Framework group  C1[X(C4H9O)]
 Deg. of freedom    36
 Full point group                 C1      NOp   1
 RotChk:  IX=0 Diff= 1.25D-03
 Largest Abelian subgroup         C1      NOp   1
 Largest concise Abelian subgroup C1      NOp   1
                         Standard orientation:                         
 ---------------------------------------------------------------------
 Center     Atomic      Atomic             Coordinates (Angstroms)
 Number     Number       Type             X           Y           Z
 ---------------------------------------------------------------------
      1          8           0       -0.757219   -0.422392   -0.616661
      2          6           0        0.659218    1.463121    0.045192
      3          6           0        1.435250   -1.009966    0.207735
      4          6           0       -1.761406   -0.150350    0.344340
      5          6           0        0.502499    0.026200   -0.313244
      6          1           0        1.699275    1.766894   -0.067049
      7          1           0        0.043377    2.090922   -0.599871
      8          1           0        0.373979    1.676296    1.085236
      9          1           0        2.462456   -0.647752    0.208972
     10          1           0        1.186092   -1.296496    1.239682
     11          1           0        1.379125   -1.913170   -0.399730
     12          1           0       -1.919726    0.923384    0.467636
     13          1           0       -2.679016   -0.605848   -0.018184
     14          1           0       -1.501179   -0.589122    1.312458
 ---------------------------------------------------------------------
 Rotational constants (GHZ):           6.9129606           4.2312016           3.0834611
 Leave Link  202 at Sat Mar  9 14:54:09 2019, MaxMem=   671088640 cpu:               0.1 elap:               0.0
 (Enter /shared/centos7/gaussian/g16/l301.exe)
 Standard basis: 6-311+G(2df,2p) (5D, 7F)
 Ernie: Thresh=  0.10000D-02 Tol=  0.10000D-05 Strict=F.
 There are   276 symmetry adapted cartesian basis functions of A   symmetry.
 There are   251 symmetry adapted basis functions of A   symmetry.
   251 basis functions,   359 primitive gaussians,   276 cartesian basis functions
    21 alpha electrons       20 beta electrons
       nuclear repulsion energy       187.7893871037 Hartrees.
 IExCor= 4336 DFT=T Ex+Corr=M062X ExCW=0 ScaHFX=  0.540000
 ScaDFX=  1.000000  1.000000  1.000000  1.000000 ScalE2=  1.000000  1.000000
 IRadAn=      5 IRanWt=     -1 IRanGd=            0 ICorTp=0 IEmpDi=  4
 NAtoms=   14 NActive=   14 NUniq=   14 SFac= 1.00D+00 NAtFMM=   60 NAOKFM=F Big=F
 Integral buffers will be    131072 words long.
 Raffenetti 2 integral format.
 Two-electron integral symmetry is turned on.
 Leave Link  301 at Sat Mar  9 14:54:09 2019, MaxMem=   671088640 cpu:               0.9 elap:               0.1
 (Enter /shared/centos7/gaussian/g16/l302.exe)
 NPDir=0 NMtPBC=     1 NCelOv=     1 NCel=       1 NClECP=     1 NCelD=      1
         NCelK=      1 NCelE2=     1 NClLst=     1 CellRange=     0.0.
 One-electron integrals computed using PRISM.
 One-electron integral symmetry used in STVInt
 NBasis=   251 RedAO= T EigKep=  6.96D-05  NBF=   251
 NBsUse=   251 1.00D-06 EigRej= -1.00D+00 NBFU=   251
 Precomputing XC quadrature grid using
 IXCGrd= 4 IRadAn=           5 IRanWt=          -1 IRanGd=           0 AccXCQ= 0.00D+00.
 Generated NRdTot=       0 NPtTot=           0 NUsed=           0 NTot=          32
 NSgBfM=   276   276   276   276   276 MxSgAt=    14 MxSgA2=    14.
 Leave Link  302 at Sat Mar  9 14:54:09 2019, MaxMem=   671088640 cpu:               5.9 elap:               0.3
 (Enter /shared/centos7/gaussian/g16/l303.exe)
 DipDrv:  MaxL=1.
 Leave Link  303 at Sat Mar  9 14:54:09 2019, MaxMem=   671088640 cpu:               0.5 elap:               0.0
 (Enter /shared/centos7/gaussian/g16/l401.exe)
 Initial guess from the checkpoint file:  "/scratch/underkoffler.c/gaussian_scratch/Gau-22075.chk"
 B after Tr=     0.000000    0.000000    0.000000
         Rot=    1.000000    0.000343   -0.000170   -0.000111 Ang=   0.05 deg.
 Guess basis will be translated and rotated to current coordinates.
 JPrj=2 DoOrth=T DoCkMO=T.
 Initial guess <Sx>= 0.0000 <Sy>= 0.0000 <Sz>= 0.5000 <S**2>= 0.7548 S= 0.5024
 Leave Link  401 at Sat Mar  9 14:54:09 2019, MaxMem=   671088640 cpu:               3.5 elap:               0.2
