 Entering Gaussian System, Link 0=g16
 Input=VSQGJBCHGBRHMO-UHFFFAOYSA-N_GeoFreq_a1.com
 Output=VSQGJBCHGBRHMO-UHFFFAOYSA-N_GeoFreq_a1.log
 Initial command:
 /shared/centos7/gaussian/g16/l1.exe "/scratch/underkoffler.c/gaussian_scratch/Gau-47867.inp" -scrdir="/scratch/underkoffler.c/gaussian_scratch/"
 Entering Link 1 = /shared/centos7/gaussian/g16/l1.exe PID=     47868.
  
 Copyright (c) 1988,1990,1992,1993,1995,1998,2003,2009,2016,
            Gaussian, Inc.  All Rights Reserved.
  
 This is part of the Gaussian(R) 16 program.  It is based on
 the Gaussian(R) 09 system (copyright 2009, Gaussian, Inc.),
 the Gaussian(R) 03 system (copyright 2003, Gaussian, Inc.),
 the Gaussian(R) 98 system (copyright 1998, Gaussian, Inc.),
 the Gaussian(R) 94 system (copyright 1995, Gaussian, Inc.),
 the Gaussian 92(TM) system (copyright 1992, Gaussian, Inc.),
 the Gaussian 90(TM) system (copyright 1990, Gaussian, Inc.),
 the Gaussian 88(TM) system (copyright 1988, Gaussian, Inc.),
 the Gaussian 86(TM) system (copyright 1986, Carnegie Mellon
 University), and the Gaussian 82(TM) system (copyright 1983,
 Carnegie Mellon University). Gaussian is a federally registered
 trademark of Gaussian, Inc.
  
 This software contains proprietary and confidential information,
 including trade secrets, belonging to Gaussian, Inc.
  
 This software is provided under written license and may be
 used, copied, transmitted, or stored only in accord with that
 written license.
  
 The following legend is applicable only to US Government
 contracts under FAR:
  
                    RESTRICTED RIGHTS LEGEND
  
 Use, reproduction and disclosure by the US Government is
 subject to restrictions as set forth in subparagraphs (a)
 and (c) of the Commercial Computer Software - Restricted
 Rights clause in FAR 52.227-19.
  
 Gaussian, Inc.
 340 Quinnipiac St., Bldg. 40, Wallingford CT 06492
  
  
 ---------------------------------------------------------------
 Warning -- This program may not be used in any manner that
 competes with the business of Gaussian, Inc. or will provide
 assistance to any competitor of Gaussian, Inc.  The licensee
 of this program is prohibited from giving any competitor of
 Gaussian, Inc. access to this program.  By using this program,
 the user acknowledges that Gaussian, Inc. is engaged in the
 business of creating and licensing software in the field of
 computational chemistry and represents and warrants to the
 licensee that it is not a competitor of Gaussian, Inc. and that
 it will not use this program in any manner prohibited above.
 ---------------------------------------------------------------
  

 Cite this work as:
 Gaussian 16, Revision A.03,
 M. J. Frisch, G. W. Trucks, H. B. Schlegel, G. E. Scuseria, 
 M. A. Robb, J. R. Cheeseman, G. Scalmani, V. Barone, 
 G. A. Petersson, H. Nakatsuji, X. Li, M. Caricato, A. V. Marenich, 
 J. Bloino, B. G. Janesko, R. Gomperts, B. Mennucci, H. P. Hratchian, 
 J. V. Ortiz, A. F. Izmaylov, J. L. Sonnenberg, D. Williams-Young, 
 F. Ding, F. Lipparini, F. Egidi, J. Goings, B. Peng, A. Petrone, 
 T. Henderson, D. Ranasinghe, V. G. Zakrzewski, J. Gao, N. Rega, 
 G. Zheng, W. Liang, M. Hada, M. Ehara, K. Toyota, R. Fukuda, 
 J. Hasegawa, M. Ishida, T. Nakajima, Y. Honda, O. Kitao, H. Nakai, 
 T. Vreven, K. Throssell, J. A. Montgomery, Jr., J. E. Peralta, 
 F. Ogliaro, M. J. Bearpark, J. J. Heyd, E. N. Brothers, K. N. Kudin, 
 V. N. Staroverov, T. A. Keith, R. Kobayashi, J. Normand, 
 K. Raghavachari, A. P. Rendell, J. C. Burant, S. S. Iyengar, 
 J. Tomasi, M. Cossi, J. M. Millam, M. Klene, C. Adamo, R. Cammi, 
 J. W. Ochterski, R. L. Martin, K. Morokuma, O. Farkas, 
 J. B. Foresman, and D. J. Fox, Gaussian, Inc., Wallingford CT, 2016.
 
 ******************************************
 Gaussian 16:  EM64L-G16RevA.03 25-Dec-2016
                 9-Mar-2019 
 ******************************************
 %nprocshared=20
 Will use up to   20 processors via shared memory.
 %mem=5GB
 ----------------------------------------------------------------------
 #p m062x/6-311+g(2df,2p) opt=(calcfc,verytight,gdiis,maxcycles=900) fr
 eq iop(7/33=1,2/16=3)
 ----------------------------------------------------------------------

 Warning!  Use of Opt=GDIIS is deprecated since it is seldom a good choice.

 1/6=900,7=1,10=4,18=20,19=11,26=3,38=1/1,3;
 2/9=110,12=2,16=3,17=6,18=5,40=1/2;
 3/5=4,6=6,7=214,11=2,25=1,30=1,71=2,74=-55,140=1/1,2,3;
 4//1;
 5/5=2,38=5/2;
 8/6=4,10=90,11=11/1;
 11/6=1,8=1,9=11,15=111,16=1/1,2,10;
 10/6=1,13=1/2;
 6/7=2,8=2,9=2,10=2,28=1/1;
 7/10=1,18=20,25=1,33=1/1,2,3,16;
 1/6=900,7=1,10=4,18=20,19=11,26=3/3(2);
 2/9=110,16=3/2;
 99//99;
 2/9=110,16=3/2;
 3/5=4,6=6,7=214,11=2,25=1,30=1,71=1,74=-55/1,2,3;
 4/5=5,16=3,69=1/1;
 5/5=2,38=5/2;
 7/33=1/1,2,3,16;
 1/6=900,7=1,18=20,19=11,26=3/3(-5);
 2/9=110,16=3/2;
 6/7=2,8=2,9=2,10=2,19=2,28=1/1;
 99/9=1/99;
 Leave Link    1 at Sat Mar  9 01:34:28 2019, MaxMem=   671088640 cpu:              24.9 elap:               1.3
 (Enter /shared/centos7/gaussian/g16/l101.exe)
 ------------------------------
 Gaussian input prepared by ASE
 ------------------------------
 Symbolic Z-matrix:
 Charge =  0 Multiplicity = 2
 O                     0.86383  -0.9033   -0.28916 
 C                    -0.46158   1.15147   0.30942 
 C                    -1.56915  -1.15096  -0.13716 
 C                     1.97145   0.02188  -0.15228 
 C                    -0.38793  -0.30092   0.08711 
 H                    -1.3358    1.41454   0.96225 
 H                     0.47161   1.54157   0.80211 
 H                    -0.59353   1.74493  -0.65408 
 H                    -2.03156  -1.52539   0.82986 
 H                    -2.39245  -0.59938  -0.67189 
 H                    -1.30405  -2.05543  -0.73968 
 H                     1.95577   0.51452   0.85955 
 H                     2.91066  -0.57468  -0.26961 
 H                     1.92444   0.81487  -0.95167 
 
 ITRead=  0  0  0  0  0  0  0  0  0  0  0  0  0  0
 MicOpt= -1 -1 -1 -1 -1 -1 -1 -1 -1 -1 -1 -1 -1 -1
 NAtoms=     14 NQM=       14 NQMF=       0 NMMI=      0 NMMIF=      0
                NMic=       0 NMicF=      0.
                    Isotopes and Nuclear Properties:
 (Nuclear quadrupole moments (NQMom) in fm**2, nuclear magnetic moments (NMagM)
  in nuclear magnetons)

  Atom         1           2           3           4           5           6           7           8           9          10
 IAtWgt=          16          12          12          12          12           1           1           1           1           1
 AtmWgt=  15.9949146  12.0000000  12.0000000  12.0000000  12.0000000   1.0078250   1.0078250   1.0078250   1.0078250   1.0078250
 NucSpn=           0           0           0           0           0           1           1           1           1           1
 AtZEff=  -0.0000000  -0.0000000  -0.0000000  -0.0000000  -0.0000000  -0.0000000  -0.0000000  -0.0000000  -0.0000000  -0.0000000
 NQMom=    0.0000000   0.0000000   0.0000000   0.0000000   0.0000000   0.0000000   0.0000000   0.0000000   0.0000000   0.0000000
 NMagM=    0.0000000   0.0000000   0.0000000   0.0000000   0.0000000   2.7928460   2.7928460   2.7928460   2.7928460   2.7928460
 AtZNuc=   8.0000000   6.0000000   6.0000000   6.0000000   6.0000000   1.0000000   1.0000000   1.0000000   1.0000000   1.0000000

  Atom        11          12          13          14
 IAtWgt=           1           1           1           1
 AtmWgt=   1.0078250   1.0078250   1.0078250   1.0078250
 NucSpn=           1           1           1           1
 AtZEff=  -0.0000000  -0.0000000  -0.0000000  -0.0000000
 NQMom=    0.0000000   0.0000000   0.0000000   0.0000000
 NMagM=    2.7928460   2.7928460   2.7928460   2.7928460
 AtZNuc=   1.0000000   1.0000000   1.0000000   1.0000000
 Leave Link  101 at Sat Mar  9 01:34:28 2019, MaxMem=   671088640 cpu:               6.6 elap:               0.4
 (Enter /shared/centos7/gaussian/g16/l103.exe)

 GradGradGradGradGradGradGradGradGradGradGradGradGradGradGradGradGradGrad
 Berny optimization.
 Initialization pass.
                           ----------------------------
                           !    Initial Parameters    !
                           ! (Angstroms and Degrees)  !
 --------------------------                            --------------------------
 ! Name  Definition              Value          Derivative Info.                !
 --------------------------------------------------------------------------------
 ! R1    R(1,4)                  1.4497         calculate D2E/DX2 analytically  !
 ! R2    R(1,5)                  1.4392         calculate D2E/DX2 analytically  !
 ! R3    R(2,5)                  1.4712         calculate D2E/DX2 analytically  !
 ! R4    R(2,6)                  1.1223         calculate D2E/DX2 analytically  !
 ! R5    R(2,7)                  1.1251         calculate D2E/DX2 analytically  !
 ! R6    R(2,8)                  1.1393         calculate D2E/DX2 analytically  !
 ! R7    R(3,5)                  1.4725         calculate D2E/DX2 analytically  !
 ! R8    R(3,9)                  1.1354         calculate D2E/DX2 analytically  !
 ! R9    R(3,10)                 1.1261         calculate D2E/DX2 analytically  !
 ! R10   R(3,11)                 1.1186         calculate D2E/DX2 analytically  !
 ! R11   R(4,12)                 1.1255         calculate D2E/DX2 analytically  !
 ! R12   R(4,13)                 1.1188         calculate D2E/DX2 analytically  !
 ! R13   R(4,14)                 1.127          calculate D2E/DX2 analytically  !
 ! A1    A(4,1,5)              111.8843         calculate D2E/DX2 analytically  !
 ! A2    A(5,2,6)              110.9955         calculate D2E/DX2 analytically  !
 ! A3    A(5,2,7)              111.5283         calculate D2E/DX2 analytically  !
 ! A4    A(5,2,8)              113.0958         calculate D2E/DX2 analytically  !
 ! A5    A(6,2,7)              108.0645         calculate D2E/DX2 analytically  !
 ! A6    A(6,2,8)              106.2373         calculate D2E/DX2 analytically  !
 ! A7    A(7,2,8)              106.6072         calculate D2E/DX2 analytically  !
 ! A8    A(5,3,9)              112.7908         calculate D2E/DX2 analytically  !
 ! A9    A(5,3,10)             112.091          calculate D2E/DX2 analytically  !
 ! A10   A(5,3,11)             111.02           calculate D2E/DX2 analytically  !
 ! A11   A(9,3,10)             105.5576         calculate D2E/DX2 analytically  !
 ! A12   A(9,3,11)             106.7749         calculate D2E/DX2 analytically  !
 ! A13   A(10,3,11)            108.2728         calculate D2E/DX2 analytically  !
 ! A14   A(1,4,12)             110.707          calculate D2E/DX2 analytically  !
 ! A15   A(1,4,13)             106.9298         calculate D2E/DX2 analytically  !
 ! A16   A(1,4,14)             110.5008         calculate D2E/DX2 analytically  !
 ! A17   A(12,4,13)            109.8378         calculate D2E/DX2 analytically  !
 ! A18   A(12,4,14)            109.2149         calculate D2E/DX2 analytically  !
 ! A19   A(13,4,14)            109.6228         calculate D2E/DX2 analytically  !
 ! A20   A(1,5,2)              119.7528         calculate D2E/DX2 analytically  !
 ! A21   A(1,5,3)              114.5997         calculate D2E/DX2 analytically  !
 ! A22   A(2,5,3)              123.5582         calculate D2E/DX2 analytically  !
 ! D1    D(5,1,4,12)            49.6356         calculate D2E/DX2 analytically  !
 ! D2    D(5,1,4,13)           169.2586         calculate D2E/DX2 analytically  !
 ! D3    D(5,1,4,14)           -71.4936         calculate D2E/DX2 analytically  !
 ! D4    D(4,1,5,2)             10.9091         calculate D2E/DX2 analytically  !
 ! D5    D(4,1,5,3)            175.0587         calculate D2E/DX2 analytically  !
 ! D6    D(6,2,5,1)           -157.6862         calculate D2E/DX2 analytically  !
 ! D7    D(6,2,5,3)             39.6518         calculate D2E/DX2 analytically  !
 ! D8    D(7,2,5,1)            -37.1263         calculate D2E/DX2 analytically  !
 ! D9    D(7,2,5,3)            160.2117         calculate D2E/DX2 analytically  !
 ! D10   D(8,2,5,1)             83.0221         calculate D2E/DX2 analytically  !
 ! D11   D(8,2,5,3)            -79.6399         calculate D2E/DX2 analytically  !
 ! D12   D(9,3,5,1)            109.3407         calculate D2E/DX2 analytically  !
 ! D13   D(9,3,5,2)            -87.1912         calculate D2E/DX2 analytically  !
 ! D14   D(10,3,5,1)          -131.6792         calculate D2E/DX2 analytically  !
 ! D15   D(10,3,5,2)            31.7889         calculate D2E/DX2 analytically  !
 ! D16   D(11,3,5,1)           -10.4497         calculate D2E/DX2 analytically  !
 ! D17   D(11,3,5,2)           153.0185         calculate D2E/DX2 analytically  !
 --------------------------------------------------------------------------------
 Trust Radius=3.00D-01 FncErr=1.00D-07 GrdErr=1.00D-06 EigMax=2.50D+02 EigMin=1.00D-04
 Number of steps in this run=    100 maximum allowed number of steps=    100.
 GradGradGradGradGradGradGradGradGradGradGradGradGradGradGradGradGradGrad

 Leave Link  103 at Sat Mar  9 01:34:28 2019, MaxMem=   671088640 cpu:               0.2 elap:               0.0
 (Enter /shared/centos7/gaussian/g16/l202.exe)
                          Input orientation:                          
 ---------------------------------------------------------------------
 Center     Atomic      Atomic             Coordinates (Angstroms)
 Number     Number       Type             X           Y           Z
 ---------------------------------------------------------------------
      1          8           0        0.863825   -0.903302   -0.289163
      2          6           0       -0.461584    1.151472    0.309420
      3          6           0       -1.569146   -1.150958   -0.137160
      4          6           0        1.971451    0.021877   -0.152281
      5          6           0       -0.387932   -0.300924    0.087114
      6          1           0       -1.335800    1.414539    0.962248
      7          1           0        0.471611    1.541571    0.802112
      8          1           0       -0.593534    1.744930   -0.654083
      9          1           0       -2.031563   -1.525390    0.829858
     10          1           0       -2.392452   -0.599378   -0.671890
     11          1           0       -1.304050   -2.055427   -0.739682
     12          1           0        1.955772    0.514516    0.859554
     13          1           0        2.910655   -0.574685   -0.269607
     14          1           0        1.924437    0.814873   -0.951668
 ---------------------------------------------------------------------
                    Distance matrix (angstroms):
                    1          2          3          4          5
     1  O    0.000000
     2  C    2.517362   0.000000
     3  C    2.450263   2.593707   0.000000
     4  C    1.449665   2.721913   3.729826   0.000000
     5  C    1.439215   1.471156   1.472455   2.393366   0.000000
     6  H    3.431729   1.122338   2.800879   3.757604   2.146422
     7  H    2.705941   1.125067   3.506656   2.338772   2.155185
     8  H    3.044700   1.139272   3.099226   3.130473   2.185672
     9  H    3.165829   3.146630   1.135409   4.402585   2.180025
    10  H    3.292748   2.785085   1.126059   4.438423   2.164084
    11  H    2.496005   3.477725   1.118647   3.922899   2.145028
    12  H    2.126525   2.559682   4.023965   1.125500   2.598953
    13  H    2.073134   3.832348   4.518656   1.118819   3.329095
    14  H    2.125073   2.719695   4.090604   1.126975   2.769679
                    6          7          8          9         10
     6  H    0.000000
     7  H    1.818932   0.000000
     8  H    1.809045   1.815596   0.000000
     9  H    3.024036   3.958901   3.868463   0.000000
    10  H    2.800497   3.867712   2.955031   1.800830   0.000000
    11  H    3.865002   4.297499   3.867154   1.809329   1.819146
    12  H    3.413946   1.805789   3.209980   4.478944   4.742692
    13  H    4.848387   3.402360   4.219926   5.151523   5.318401
    14  H    3.827769   2.390510   2.700693   4.929564   4.551254
                   11         12         13         14
    11  H    0.000000
    12  H    4.448438   0.000000
    13  H    4.491916   1.836618   0.000000
    14  H    4.325124   1.836225   1.835403   0.000000
 Stoichiometry    C4H9O(2)
 Framework group  C1[X(C4H9O)]
 Deg. of freedom    36
 Full point group                 C1      NOp   1
 Largest Abelian subgroup         C1      NOp   1
 Largest concise Abelian subgroup C1      NOp   1
                         Standard orientation:                         
 ---------------------------------------------------------------------
 Center     Atomic      Atomic             Coordinates (Angstroms)
 Number     Number       Type             X           Y           Z
 ---------------------------------------------------------------------
      1          8           0       -0.610932   -0.893424    0.020103
      2          6           0        0.273679    1.463369    0.010103
      3          6           0        1.823607   -0.616282    0.019616
      4          6           0       -1.882617   -0.197698    0.002424
      5          6           0        0.498889    0.014188   -0.105898
      6          1           0        1.095643    2.039520   -0.491959
      7          1           0       -0.702640    1.768271   -0.458524
      8          1           0        0.243950    1.826009    1.089709
      9          1           0        2.388193   -0.653164   -0.964780
     10          1           0        2.493308   -0.056539    0.731091
     11          1           0        1.733268   -1.671523    0.379724
     12          1           0       -1.935033    0.513596   -0.868244
     13          1           0       -2.679134   -0.977246   -0.095669
     14          1           0       -2.031444    0.377013    0.960354
 ---------------------------------------------------------------------
 Rotational constants (GHZ):           7.9306726           3.9037737           2.7624298
 Leave Link  202 at Sat Mar  9 01:34:28 2019, MaxMem=   671088640 cpu:               0.2 elap:               0.0
 (Enter /shared/centos7/gaussian/g16/l301.exe)
 Standard basis: 6-311+G(2df,2p) (5D, 7F)
 Ernie: Thresh=  0.10000D-02 Tol=  0.10000D-05 Strict=F.
 There are   276 symmetry adapted cartesian basis functions of A   symmetry.
 There are   251 symmetry adapted basis functions of A   symmetry.
   251 basis functions,   359 primitive gaussians,   276 cartesian basis functions
    21 alpha electrons       20 beta electrons
       nuclear repulsion energy       184.5864537094 Hartrees.
 IExCor= 4336 DFT=T Ex+Corr=M062X ExCW=0 ScaHFX=  0.540000
 ScaDFX=  1.000000  1.000000  1.000000  1.000000 ScalE2=  1.000000  1.000000
 IRadAn=      5 IRanWt=     -1 IRanGd=            0 ICorTp=0 IEmpDi=  4
 NAtoms=   14 NActive=   14 NUniq=   14 SFac= 1.00D+00 NAtFMM=   60 NAOKFM=F Big=F
 Integral buffers will be    131072 words long.
 Raffenetti 2 integral format.
 Two-electron integral symmetry is turned on.
 Leave Link  301 at Sat Mar  9 01:34:28 2019, MaxMem=   671088640 cpu:               1.3 elap:               0.1
 (Enter /shared/centos7/gaussian/g16/l302.exe)
 NPDir=0 NMtPBC=     1 NCelOv=     1 NCel=       1 NClECP=     1 NCelD=      1
         NCelK=      1 NCelE2=     1 NClLst=     1 CellRange=     0.0.
 One-electron integrals computed using PRISM.
 One-electron integral symmetry used in STVInt
 NBasis=   251 RedAO= T EigKep=  3.52D-05  NBF=   251
 NBsUse=   251 1.00D-06 EigRej= -1.00D+00 NBFU=   251
 Precomputing XC quadrature grid using
 IXCGrd= 4 IRadAn=           5 IRanWt=          -1 IRanGd=           0 AccXCQ= 0.00D+00.
 Generated NRdTot=       0 NPtTot=           0 NUsed=           0 NTot=          32
 NSgBfM=   276   276   276   276   276 MxSgAt=    14 MxSgA2=    14.
 Leave Link  302 at Sat Mar  9 01:34:29 2019, MaxMem=   671088640 cpu:               8.6 elap:               0.5
 (Enter /shared/centos7/gaussian/g16/l303.exe)
 DipDrv:  MaxL=1.
 Leave Link  303 at Sat Mar  9 01:34:29 2019, MaxMem=   671088640 cpu:               0.8 elap:               0.1
 (Enter /shared/centos7/gaussian/g16/l401.exe)
 ExpMin= 4.38D-02 ExpMax= 8.59D+03 ExpMxC= 1.30D+03 IAcc=3 IRadAn=         5 AccDes= 0.00D+00
 Harris functional with IExCor= 1009 and IRadAn=       5 diagonalized for initial guess.
 HarFok:  IExCor= 1009 AccDes= 0.00D+00 IRadAn=         5 IDoV= 1 UseB2=F ITyADJ=14
 ICtDFT=  3500011 ScaDFX=  1.000000  1.000000  1.000000  1.000000
 FoFCou: FMM=F IPFlag=           0 FMFlag=      100000 FMFlg1=           0
         NFxFlg=           0 DoJE=T BraDBF=F KetDBF=T FulRan=T
         wScrn=  0.000000 ICntrl=       500 IOpCl=  0 I1Cent=   200000004 NGrid=           0
         NMat0=    1 NMatS0=      1 NMatT0=    0 NMatD0=    1 NMtDS0=    0 NMtDT0=    0
 Petite list used in FoFCou.
 Harris En= -232.865364200233    
 JPrj=0 DoOrth=F DoCkMO=F.
 Initial guess <Sx>= 0.0000 <Sy>= 0.0000 <Sz>= 0.5000 <S**2>= 0.7500 S= 0.5000
 Leave Link  401 at Sat Mar  9 01:34:30 2019, MaxMem=   671088640 cpu:              26.2 elap:               1.3
 (Enter /shared/centos7/gaussian/g16/l502.exe)
 Integral symmetry usage will be decided dynamically.
 UHF open shell SCF:
 Using DIIS extrapolation, IDIIS=  1040.
 NGot=   671088640 LenX=   670928170 LenY=   670851553
 Requested convergence on RMS density matrix=1.00D-08 within 128 cycles.
 Requested convergence on MAX density matrix=1.00D-06.
 Requested convergence on             energy=1.00D-06.
 No special actions if energy rises.
 Fock matrices will be formed incrementally for  20 cycles.

 Cycle   1  Pass 1  IDiag  1:
 FoFJK:  IHMeth= 1 ICntrl=       0 DoSepK=F KAlg= 0 I1Cent=           0 FoldK=F
 IRaf= 980000000 NMat=       1 IRICut=       1 DoRegI=T DoRafI=F ISym2E= 0 IDoP0=0 IntGTp=1.
 FoFCou: FMM=F IPFlag=           0 FMFlag=      100000 FMFlg1=           0
         NFxFlg=           0 DoJE=F BraDBF=F KetDBF=F FulRan=T
         wScrn=  0.000000 ICntrl=         0 IOpCl=  1 I1Cent=           0 NGrid=           0
         NMat0=    1 NMatS0=      1 NMatT0=    0 NMatD0=    1 NMtDS0=    0 NMtDT0=    0
 Symmetry not used in FoFCou.
 E= -232.777503314698    
 DIIS: error= 2.80D-02 at cycle   1 NSaved=   1.
 NSaved= 1 IEnMin= 1 EnMin= -232.777503314698     IErMin= 1 ErrMin= 2.80D-02
 ErrMax= 2.80D-02  0.00D+00 EMaxC= 1.00D-01 BMatC= 7.88D-01 BMatP= 7.88D-01
 IDIUse=3 WtCom= 7.20D-01 WtEn= 2.80D-01
 Coeff-Com:  0.100D+01
 Coeff-En:   0.100D+01
 Coeff:      0.100D+01
 Gap=     0.198 Goal=   None    Shift=    0.000
 Gap=     0.397 Goal=   None    Shift=    0.000
 GapD=    0.198 DampG=1.000 DampE=0.500 DampFc=0.5000 IDamp=-1.
 Damping current iteration by 5.00D-01
 RMSDP=3.68D-03 MaxDP=1.90D-01              OVMax= 1.49D-01

 Cycle   2  Pass 1  IDiag  1:
 RMSU=  1.84D-03    CP:  9.92D-01
 E= -232.866383984601     Delta-E=       -0.088880669903 Rises=F Damp=T
 DIIS: error= 4.08D-03 at cycle   2 NSaved=   2.
 NSaved= 2 IEnMin= 2 EnMin= -232.866383984601     IErMin= 2 ErrMin= 4.08D-03
 ErrMax= 4.08D-03  0.00D+00 EMaxC= 1.00D-01 BMatC= 5.38D-02 BMatP= 7.88D-01
 IDIUse=3 WtCom= 9.59D-01 WtEn= 4.08D-02
 Coeff-Com: -0.147D+00 0.115D+01
 Coeff-En:   0.000D+00 0.100D+01
 Coeff:     -0.141D+00 0.114D+01
 Gap=     0.222 Goal=   None    Shift=    0.000
 Gap=     0.422 Goal=   None    Shift=    0.000
 RMSDP=1.30D-03 MaxDP=1.06D-01 DE=-8.89D-02 OVMax= 7.56D-02

 Cycle   3  Pass 1  IDiag  1:
 RMSU=  1.08D-03    CP:  9.82D-01  6.09D-01
 E= -232.946951353337     Delta-E=       -0.080567368736 Rises=F Damp=F
 DIIS: error= 2.86D-03 at cycle   3 NSaved=   3.
 NSaved= 3 IEnMin= 3 EnMin= -232.946951353337     IErMin= 3 ErrMin= 2.86D-03
 ErrMax= 2.86D-03  0.00D+00 EMaxC= 1.00D-01 BMatC= 4.37D-03 BMatP= 5.38D-02
 IDIUse=3 WtCom= 9.71D-01 WtEn= 2.86D-02
 Coeff-Com: -0.666D-01 0.203D+00 0.864D+00
 Coeff-En:   0.000D+00 0.000D+00 0.100D+01
 Coeff:     -0.647D-01 0.197D+00 0.868D+00
 Gap=     0.208 Goal=   None    Shift=    0.000
 Gap=     0.372 Goal=   None    Shift=    0.000
 RMSDP=1.76D-04 MaxDP=6.96D-03 DE=-8.06D-02 OVMax= 1.51D-02

 Cycle   4  Pass 1  IDiag  1:
 RMSU=  1.58D-04    CP:  9.77D-01  6.40D-01  1.02D+00
 E= -232.948113544182     Delta-E=       -0.001162190846 Rises=F Damp=F
 DIIS: error= 1.19D-03 at cycle   4 NSaved=   4.
 NSaved= 4 IEnMin= 4 EnMin= -232.948113544182     IErMin= 4 ErrMin= 1.19D-03
 ErrMax= 1.19D-03  0.00D+00 EMaxC= 1.00D-01 BMatC= 8.84D-04 BMatP= 4.37D-03
 IDIUse=3 WtCom= 9.88D-01 WtEn= 1.19D-02
 Coeff-Com: -0.196D-01 0.382D-01 0.346D+00 0.635D+00
 Coeff-En:   0.000D+00 0.000D+00 0.000D+00 0.100D+01
 Coeff:     -0.193D-01 0.377D-01 0.342D+00 0.640D+00
 Gap=     0.215 Goal=   None    Shift=    0.000
 Gap=     0.368 Goal=   None    Shift=    0.000
 RMSDP=1.32D-04 MaxDP=9.85D-03 DE=-1.16D-03 OVMax= 6.90D-03

 Cycle   5  Pass 1  IDiag  1:
 RMSU=  7.39D-05    CP:  9.77D-01  5.90D-01  1.08D+00  8.97D-01
 E= -232.948354756933     Delta-E=       -0.000241212751 Rises=F Damp=F
 DIIS: error= 3.84D-04 at cycle   5 NSaved=   5.
 NSaved= 5 IEnMin= 5 EnMin= -232.948354756933     IErMin= 5 ErrMin= 3.84D-04
 ErrMax= 3.84D-04  0.00D+00 EMaxC= 1.00D-01 BMatC= 7.84D-05 BMatP= 8.84D-04
 IDIUse=3 WtCom= 9.96D-01 WtEn= 3.84D-03
 Coeff-Com:  0.561D-02-0.198D-01-0.459D-01 0.105D+00 0.955D+00
 Coeff-En:   0.000D+00 0.000D+00 0.000D+00 0.000D+00 0.100D+01
 Coeff:      0.559D-02-0.197D-01-0.458D-01 0.105D+00 0.955D+00
 Gap=     0.215 Goal=   None    Shift=    0.000
 Gap=     0.369 Goal=   None    Shift=    0.000
 RMSDP=5.30D-05 MaxDP=4.46D-03 DE=-2.41D-04 OVMax= 5.67D-03

 Cycle   6  Pass 1  IDiag  1:
 RMSU=  2.28D-05    CP:  9.77D-01  5.72D-01  1.10D+00  9.89D-01  1.32D+00
 E= -232.948407245078     Delta-E=       -0.000052488145 Rises=F Damp=F
 DIIS: error= 1.57D-04 at cycle   6 NSaved=   6.
 NSaved= 6 IEnMin= 6 EnMin= -232.948407245078     IErMin= 6 ErrMin= 1.57D-04
 ErrMax= 1.57D-04  0.00D+00 EMaxC= 1.00D-01 BMatC= 2.18D-05 BMatP= 7.84D-05
 IDIUse=3 WtCom= 9.98D-01 WtEn= 1.57D-03
 Coeff-Com:  0.478D-02-0.110D-01-0.856D-01-0.148D+00 0.174D+00 0.107D+01
 Coeff-En:   0.000D+00 0.000D+00 0.000D+00 0.000D+00 0.000D+00 0.100D+01
 Coeff:      0.477D-02-0.110D-01-0.855D-01-0.147D+00 0.174D+00 0.107D+01
 Gap=     0.216 Goal=   None    Shift=    0.000
 Gap=     0.369 Goal=   None    Shift=    0.000
 RMSDP=4.61D-05 MaxDP=3.93D-03 DE=-5.25D-05 OVMax= 3.12D-03

 Cycle   7  Pass 1  IDiag  1:
 RMSU=  1.17D-05    CP:  9.77D-01  5.56D-01  1.11D+00  1.03D+00  1.64D+00
                    CP:  1.50D+00
 E= -232.948421341766     Delta-E=       -0.000014096688 Rises=F Damp=F
 DIIS: error= 8.99D-05 at cycle   7 NSaved=   7.
 NSaved= 7 IEnMin= 7 EnMin= -232.948421341766     IErMin= 7 ErrMin= 8.99D-05
 ErrMax= 8.99D-05  0.00D+00 EMaxC= 1.00D-01 BMatC= 7.08D-06 BMatP= 2.18D-05
 IDIUse=1 WtCom= 1.00D+00 WtEn= 0.00D+00
 Coeff-Com:  0.142D-02-0.199D-02-0.370D-01-0.923D-01-0.285D-01 0.550D+00
 Coeff-Com:  0.608D+00
 Coeff:      0.142D-02-0.199D-02-0.370D-01-0.923D-01-0.285D-01 0.550D+00
 Coeff:      0.608D+00
 Gap=     0.216 Goal=   None    Shift=    0.000
 Gap=     0.370 Goal=   None    Shift=    0.000
 RMSDP=8.47D-06 MaxDP=4.91D-04 DE=-1.41D-05 OVMax= 1.22D-03

 Cycle   8  Pass 1  IDiag  1:
 RMSU=  4.88D-06    CP:  9.76D-01  5.53D-01  1.12D+00  1.03D+00  1.68D+00
                    CP:  1.60D+00  1.05D+00
 E= -232.948423405477     Delta-E=       -0.000002063712 Rises=F Damp=F
 DIIS: error= 2.97D-05 at cycle   8 NSaved=   8.
 NSaved= 8 IEnMin= 8 EnMin= -232.948423405477     IErMin= 8 ErrMin= 2.97D-05
 ErrMax= 2.97D-05  0.00D+00 EMaxC= 1.00D-01 BMatC= 7.37D-07 BMatP= 7.08D-06
 IDIUse=1 WtCom= 1.00D+00 WtEn= 0.00D+00
 Coeff-Com: -0.102D-02 0.234D-02 0.132D-01 0.157D-01-0.411D-01-0.157D+00
 Coeff-Com:  0.134D+00 0.103D+01
 Coeff:     -0.102D-02 0.234D-02 0.132D-01 0.157D-01-0.411D-01-0.157D+00
 Coeff:      0.134D+00 0.103D+01
 Gap=     0.216 Goal=   None    Shift=    0.000
 Gap=     0.370 Goal=   None    Shift=    0.000
 RMSDP=4.09D-06 MaxDP=1.49D-04 DE=-2.06D-06 OVMax= 5.51D-04

 Cycle   9  Pass 1  IDiag  1:
 RMSU=  2.34D-06    CP:  9.77D-01  5.53D-01  1.12D+00  1.03D+00  1.69D+00
                    CP:  1.69D+00  1.24D+00  1.18D+00
 E= -232.948423778132     Delta-E=       -0.000000372655 Rises=F Damp=F
 DIIS: error= 9.38D-06 at cycle   9 NSaved=   9.
 NSaved= 9 IEnMin= 9 EnMin= -232.948423778132     IErMin= 9 ErrMin= 9.38D-06
 ErrMax= 9.38D-06  0.00D+00 EMaxC= 1.00D-01 BMatC= 7.32D-08 BMatP= 7.37D-07
 IDIUse=1 WtCom= 1.00D+00 WtEn= 0.00D+00
 Coeff-Com: -0.385D-03 0.789D-03 0.781D-02 0.153D-01-0.381D-02-0.110D+00
 Coeff-Com: -0.441D-01 0.245D+00 0.890D+00
 Coeff:     -0.385D-03 0.789D-03 0.781D-02 0.153D-01-0.381D-02-0.110D+00
 Coeff:     -0.441D-01 0.245D+00 0.890D+00
 Gap=     0.216 Goal=   None    Shift=    0.000
 Gap=     0.370 Goal=   None    Shift=    0.000
 RMSDP=1.28D-06 MaxDP=6.85D-05 DE=-3.73D-07 OVMax= 1.76D-04

 Cycle  10  Pass 1  IDiag  1:
 RMSU=  7.95D-07    CP:  9.77D-01  5.53D-01  1.12D+00  1.03D+00  1.69D+00
                    CP:  1.71D+00  1.29D+00  1.31D+00  1.15D+00
 E= -232.948423815460     Delta-E=       -0.000000037328 Rises=F Damp=F
 DIIS: error= 2.94D-06 at cycle  10 NSaved=  10.
 NSaved=10 IEnMin=10 EnMin= -232.948423815460     IErMin=10 ErrMin= 2.94D-06
 ErrMax= 2.94D-06  0.00D+00 EMaxC= 1.00D-01 BMatC= 1.27D-08 BMatP= 7.32D-08
 IDIUse=1 WtCom= 1.00D+00 WtEn= 0.00D+00
 Coeff-Com:  0.451D-04-0.120D-03 0.489D-03 0.209D-02 0.405D-02-0.109D-01
 Coeff-Com: -0.275D-01-0.781D-01 0.269D+00 0.841D+00
 Coeff:      0.451D-04-0.120D-03 0.489D-03 0.209D-02 0.405D-02-0.109D-01
 Coeff:     -0.275D-01-0.781D-01 0.269D+00 0.841D+00
 Gap=     0.216 Goal=   None    Shift=    0.000
 Gap=     0.370 Goal=   None    Shift=    0.000
 RMSDP=4.14D-07 MaxDP=2.55D-05 DE=-3.73D-08 OVMax= 5.76D-05

 Cycle  11  Pass 1  IDiag  1:
 RMSU=  2.49D-07    CP:  9.77D-01  5.53D-01  1.12D+00  1.03D+00  1.69D+00
                    CP:  1.71D+00  1.29D+00  1.34D+00  1.24D+00  1.23D+00
 E= -232.948423820501     Delta-E=       -0.000000005041 Rises=F Damp=F
 DIIS: error= 9.55D-07 at cycle  11 NSaved=  11.
 NSaved=11 IEnMin=11 EnMin= -232.948423820501     IErMin=11 ErrMin= 9.55D-07
 ErrMax= 9.55D-07  0.00D+00 EMaxC= 1.00D-01 BMatC= 1.15D-09 BMatP= 1.27D-08
 IDIUse=1 WtCom= 1.00D+00 WtEn= 0.00D+00
 Coeff-Com:  0.599D-04-0.129D-03-0.838D-03-0.142D-02 0.152D-02 0.110D-01
 Coeff-Com:  0.109D-02-0.542D-01-0.514D-01 0.187D+00 0.908D+00
 Coeff:      0.599D-04-0.129D-03-0.838D-03-0.142D-02 0.152D-02 0.110D-01
 Coeff:      0.109D-02-0.542D-01-0.514D-01 0.187D+00 0.908D+00
 Gap=     0.216 Goal=   None    Shift=    0.000
 Gap=     0.370 Goal=   None    Shift=    0.000
 RMSDP=1.57D-07 MaxDP=7.08D-06 DE=-5.04D-09 OVMax= 1.33D-05

 Cycle  12  Pass 1  IDiag  1:
 RMSU=  1.07D-07    CP:  9.77D-01  5.53D-01  1.12D+00  1.03D+00  1.69D+00
                    CP:  1.71D+00  1.30D+00  1.34D+00  1.26D+00  1.33D+00
                    CP:  1.21D+00
 E= -232.948423820996     Delta-E=       -0.000000000496 Rises=F Damp=F
 DIIS: error= 2.55D-07 at cycle  12 NSaved=  12.
 NSaved=12 IEnMin=12 EnMin= -232.948423820996     IErMin=12 ErrMin= 2.55D-07
 ErrMax= 2.55D-07  0.00D+00 EMaxC= 1.00D-01 BMatC= 6.93D-11 BMatP= 1.15D-09
 IDIUse=1 WtCom= 1.00D+00 WtEn= 0.00D+00
 Coeff-Com: -0.474D-06 0.375D-06-0.870D-04-0.213D-03-0.553D-04 0.134D-02
 Coeff-Com:  0.181D-02 0.553D-03-0.211D-01-0.449D-01 0.872D-01 0.976D+00
 Coeff:     -0.474D-06 0.375D-06-0.870D-04-0.213D-03-0.553D-04 0.134D-02
 Coeff:      0.181D-02 0.553D-03-0.211D-01-0.449D-01 0.872D-01 0.976D+00
 Gap=     0.216 Goal=   None    Shift=    0.000
 Gap=     0.370 Goal=   None    Shift=    0.000
 RMSDP=6.62D-08 MaxDP=5.16D-06 DE=-4.96D-10 OVMax= 2.17D-06

 Cycle  13  Pass 1  IDiag  1:
 RMSU=  3.16D-08    CP:  9.77D-01  5.53D-01  1.12D+00  1.03D+00  1.69D+00
                    CP:  1.71D+00  1.30D+00  1.34D+00  1.26D+00  1.36D+00
                    CP:  1.33D+00  1.22D+00
 E= -232.948423821032     Delta-E=       -0.000000000036 Rises=F Damp=F
 DIIS: error= 7.47D-08 at cycle  13 NSaved=  13.
 NSaved=13 IEnMin=13 EnMin= -232.948423821032     IErMin=13 ErrMin= 7.47D-08
 ErrMax= 7.47D-08  0.00D+00 EMaxC= 1.00D-01 BMatC= 1.10D-11 BMatP= 6.93D-11
 IDIUse=1 WtCom= 1.00D+00 WtEn= 0.00D+00
 Coeff-Com: -0.622D-05 0.131D-04 0.619D-04 0.922D-04-0.147D-03-0.812D-03
 Coeff-Com:  0.206D-03 0.581D-02 0.748D-03-0.293D-01-0.777D-01 0.200D+00
 Coeff-Com:  0.901D+00
 Coeff:     -0.622D-05 0.131D-04 0.619D-04 0.922D-04-0.147D-03-0.812D-03
 Coeff:      0.206D-03 0.581D-02 0.748D-03-0.293D-01-0.777D-01 0.200D+00
 Coeff:      0.901D+00
 Gap=     0.216 Goal=   None    Shift=    0.000
 Gap=     0.370 Goal=   None    Shift=    0.000
 RMSDP=2.08D-08 MaxDP=1.06D-06 DE=-3.60D-11 OVMax= 1.02D-06

 Cycle  14  Pass 1  IDiag  1:
 RMSU=  1.03D-08    CP:  9.77D-01  5.53D-01  1.12D+00  1.03D+00  1.69D+00
                    CP:  1.71D+00  1.30D+00  1.34D+00  1.25D+00  1.36D+00
                    CP:  1.36D+00  1.34D+00  1.11D+00
 E= -232.948423821043     Delta-E=       -0.000000000010 Rises=F Damp=F
 DIIS: error= 3.35D-08 at cycle  14 NSaved=  14.
 NSaved=14 IEnMin=14 EnMin= -232.948423821043     IErMin=14 ErrMin= 3.35D-08
 ErrMax= 3.35D-08  0.00D+00 EMaxC= 1.00D-01 BMatC= 1.57D-12 BMatP= 1.10D-11
 IDIUse=1 WtCom= 1.00D+00 WtEn= 0.00D+00
 Coeff-Com: -0.915D-06 0.218D-05 0.190D-04 0.343D-04-0.192D-04-0.276D-03
 Coeff-Com: -0.131D-03 0.108D-02 0.222D-02-0.529D-03-0.253D-01-0.824D-01
 Coeff-Com:  0.199D+00 0.906D+00
 Coeff:     -0.915D-06 0.218D-05 0.190D-04 0.343D-04-0.192D-04-0.276D-03
 Coeff:     -0.131D-03 0.108D-02 0.222D-02-0.529D-03-0.253D-01-0.824D-01
 Coeff:      0.199D+00 0.906D+00
 Gap=     0.216 Goal=   None    Shift=    0.000
 Gap=     0.370 Goal=   None    Shift=    0.000
 RMSDP=6.34D-09 MaxDP=2.91D-07 DE=-1.05D-11 OVMax= 4.10D-07

 SCF Done:  E(UM062X) =  -232.948423821     A.U. after   14 cycles
            NFock= 14  Conv=0.63D-08     -V/T= 2.0061
 <Sx>= 0.0000 <Sy>= 0.0000 <Sz>= 0.5000 <S**2>= 0.7554 S= 0.5027
 <L.S>= 0.000000000000E+00
 KE= 2.315428312612D+02 PE=-9.117173721091D+02 EE= 2.626396633175D+02
 Annihilation of the first spin contaminant:
 S**2 before annihilation     0.7554,   after     0.7500
 Leave Link  502 at Sat Mar  9 01:35:56 2019, MaxMem=   671088640 cpu:            1708.9 elap:              85.5
 (Enter /shared/centos7/gaussian/g16/l801.exe)
 DoSCS=F DFT=T ScalE2(SS,OS)=  1.000000  1.000000
 Range of M.O.s used for correlation:     1   251
 NBasis=   251 NAE=    21 NBE=    20 NFC=     0 NFV=     0
 NROrb=    251 NOA=    21 NOB=    20 NVA=   230 NVB=   231

 **** Warning!!: The largest alpha MO coefficient is  0.62598298D+02


 **** Warning!!: The largest beta MO coefficient is  0.66205446D+02

 Leave Link  801 at Sat Mar  9 01:35:56 2019, MaxMem=   671088640 cpu:               0.5 elap:               0.1
 (Enter /shared/centos7/gaussian/g16/l1101.exe)
 Using compressed storage, NAtomX=    14.
 Will process     15 centers per pass.
 Leave Link 1101 at Sat Mar  9 01:35:56 2019, MaxMem=   671088640 cpu:               9.0 elap:               0.5
 (Enter /shared/centos7/gaussian/g16/l1102.exe)
 Symmetrizing basis deriv contribution to polar:
 IMax=3 JMax=2 DiffMx= 0.00D+00
 Leave Link 1102 at Sat Mar  9 01:35:56 2019, MaxMem=   671088640 cpu:               0.7 elap:               0.1
 (Enter /shared/centos7/gaussian/g16/l1110.exe)
 Forming Gx(P) for the SCF density, NAtomX=    14.
 Integral derivatives from FoFJK, PRISM(SPDF).
 Do as many integral derivatives as possible in FoFJK.
 G2DrvN: MDV=     671087496.
 G2DrvN: will do    15 centers at a time, making    1 passes.
 Calling FoFCou, ICntrl=  3107 FMM=F I1Cent=   0 AccDes= 0.00D+00.
 FoFJK:  IHMeth= 1 ICntrl=    3107 DoSepK=F KAlg= 0 I1Cent=           0 FoldK=F
 IRaf=         0 NMat=       1 IRICut=       1 DoRegI=T DoRafI=F ISym2E= 0 IDoP0=0 IntGTp=1.
 FoFCou: FMM=F IPFlag=           0 FMFlag=      100000 FMFlg1=           0
         NFxFlg=           0 DoJE=F BraDBF=F KetDBF=F FulRan=T
         wScrn=  0.000000 ICntrl=      3107 IOpCl=  1 I1Cent=           0 NGrid=           0
         NMat0=    1 NMatS0=      1 NMatT0=    0 NMatD0=    1 NMtDS0=    0 NMtDT0=    0
 Symmetry not used in FoFCou.
 End of G2Drv F.D. properties file   721 does not exist.
 End of G2Drv F.D. properties file   722 does not exist.
 End of G2Drv F.D. properties file   788 does not exist.
 Leave Link 1110 at Sat Mar  9 01:38:38 2019, MaxMem=   671088640 cpu:            3225.9 elap:             161.3
 (Enter /shared/centos7/gaussian/g16/l1002.exe)
 Minotr:  UHF open shell wavefunction.
          IDoAtm=11111111111111
          Direct CPHF calculation.
          Differentiating once with respect to nuclear coordinates.
          Requested convergence is 1.0D-08 RMS, and 1.0D-07 maximum.
          Secondary convergence is 1.0D-12 RMS, and 1.0D-12 maximum.
          NewPWx=T KeepS1=F KeepF1=F KeepIn=T MapXYZ=F SortEE=F KeepMc=T.
         4257 words used for storage of precomputed grid.
 Two-electron integrals replicated using symmetry.
          MDV=     671088640 using IRadAn=       1.
          Solving linear equations simultaneously, MaxMat=     380.
 FoF2E skips out because all densities are zero.
 CalDSu exits because no D1Ps are significant.
 FoFJK:  IHMeth= 1 ICntrl=       0 DoSepK=F KAlg= 0 I1Cent=           0 FoldK=F
 IRaf= 970000000 NMat=      42 IRICut=     105 DoRegI=T DoRafI=T ISym2E= 2 IDoP0=3 IntGTp=3.
 FoFCou: FMM=F IPFlag=           0 FMFlag=      100000 FMFlg1=           0
         NFxFlg=           0 DoJE=F BraDBF=F KetDBF=F FulRan=T
         wScrn=  0.000000 ICntrl=         0 IOpCl=  1 I1Cent=           0 NGrid=           0
         NMat0=   42 NMatS0=     42 NMatT0=    0 NMatD0=   42 NMtDS0=    0 NMtDT0=    0
 Integrals replicated using symmetry in FoFCou.
 Raff kept on since  95.76% of shell-pairs survive, threshold=   0.20 IRatSp=96.
          There are    45 degrees of freedom in the 1st order CPHF.  IDoFFX=6 NUNeed=     0.
     39 vectors produced by pass  0 Test12= 2.10D-14 2.22D-09 XBig12= 1.34D-01 5.77D-02.
 AX will form    39 AO Fock derivatives at one time.
     39 vectors produced by pass  1 Test12= 2.10D-14 2.22D-09 XBig12= 6.99D-03 2.32D-02.
     39 vectors produced by pass  2 Test12= 2.10D-14 2.22D-09 XBig12= 4.91D-04 5.24D-03.
     39 vectors produced by pass  3 Test12= 2.10D-14 2.22D-09 XBig12= 7.50D-06 3.21D-04.
     39 vectors produced by pass  4 Test12= 2.10D-14 2.22D-09 XBig12= 1.18D-07 6.52D-05.
     39 vectors produced by pass  5 Test12= 2.10D-14 2.22D-09 XBig12= 1.64D-09 5.13D-06.
     39 vectors produced by pass  6 Test12= 2.10D-14 2.22D-09 XBig12= 1.03D-11 3.01D-07.
     15 vectors produced by pass  7 Test12= 2.10D-14 2.22D-09 XBig12= 6.89D-14 2.75D-08.
 InvSVY:  IOpt=1 It=  1 EMax= 2.00D-15
 Solved reduced A of dimension   288 with    39 vectors.
 End of Minotr F.D. properties file   721 does not exist.
 End of Minotr F.D. properties file   722 does not exist.
 End of Minotr F.D. properties file   788 does not exist.
 Leave Link 1002 at Sat Mar  9 01:42:52 2019, MaxMem=   671088640 cpu:            5079.1 elap:             254.0
 (Enter /shared/centos7/gaussian/g16/l601.exe)
 Copying SCF densities to generalized density rwf, IOpCl= 1 IROHF=0.

 **********************************************************************

            Population analysis using the SCF density.

 **********************************************************************

 Orbital symmetries:
 Alpha Orbitals:
       Occupied  (A) (A) (A) (A) (A) (A) (A) (A) (A) (A) (A) (A)
                 (A) (A) (A) (A) (A) (A) (A) (A) (A)
       Virtual   (A) (A) (A) (A) (A) (A) (A) (A) (A) (A) (A) (A)
                 (A) (A) (A) (A) (A) (A) (A) (A) (A) (A) (A) (A)
                 (A) (A) (A) (A) (A) (A) (A) (A) (A) (A) (A) (A)
                 (A) (A) (A) (A) (A) (A) (A) (A) (A) (A) (A) (A)
                 (A) (A) (A) (A) (A) (A) (A) (A) (A) (A) (A) (A)
                 (A) (A) (A) (A) (A) (A) (A) (A) (A) (A) (A) (A)
                 (A) (A) (A) (A) (A) (A) (A) (A) (A) (A) (A) (A)
                 (A) (A) (A) (A) (A) (A) (A) (A) (A) (A) (A) (A)
                 (A) (A) (A) (A) (A) (A) (A) (A) (A) (A) (A) (A)
                 (A) (A) (A) (A) (A) (A) (A) (A) (A) (A) (A) (A)
                 (A) (A) (A) (A) (A) (A) (A) (A) (A) (A) (A) (A)
                 (A) (A) (A) (A) (A) (A) (A) (A) (A) (A) (A) (A)
                 (A) (A) (A) (A) (A) (A) (A) (A) (A) (A) (A) (A)
                 (A) (A) (A) (A) (A) (A) (A) (A) (A) (A) (A) (A)
                 (A) (A) (A) (A) (A) (A) (A) (A) (A) (A) (A) (A)
                 (A) (A) (A) (A) (A) (A) (A) (A) (A) (A) (A) (A)
                 (A) (A) (A) (A) (A) (A) (A) (A) (A) (A) (A) (A)
                 (A) (A) (A) (A) (A) (A) (A) (A) (A) (A) (A) (A)
                 (A) (A) (A) (A) (A) (A) (A) (A) (A) (A) (A) (A)
                 (A) (A)
 Beta  Orbitals:
       Occupied  (A) (A) (A) (A) (A) (A) (A) (A) (A) (A) (A) (A)
                 (A) (A) (A) (A) (A) (A) (A) (A)
       Virtual   (A) (A) (A) (A) (A) (A) (A) (A) (A) (A) (A) (A)
                 (A) (A) (A) (A) (A) (A) (A) (A) (A) (A) (A) (A)
                 (A) (A) (A) (A) (A) (A) (A) (A) (A) (A) (A) (A)
                 (A) (A) (A) (A) (A) (A) (A) (A) (A) (A) (A) (A)
                 (A) (A) (A) (A) (A) (A) (A) (A) (A) (A) (A) (A)
                 (A) (A) (A) (A) (A) (A) (A) (A) (A) (A) (A) (A)
                 (A) (A) (A) (A) (A) (A) (A) (A) (A) (A) (A) (A)
                 (A) (A) (A) (A) (A) (A) (A) (A) (A) (A) (A) (A)
                 (A) (A) (A) (A) (A) (A) (A) (A) (A) (A) (A) (A)
                 (A) (A) (A) (A) (A) (A) (A) (A) (A) (A) (A) (A)
                 (A) (A) (A) (A) (A) (A) (A) (A) (A) (A) (A) (A)
                 (A) (A) (A) (A) (A) (A) (A) (A) (A) (A) (A) (A)
                 (A) (A) (A) (A) (A) (A) (A) (A) (A) (A) (A) (A)
                 (A) (A) (A) (A) (A) (A) (A) (A) (A) (A) (A) (A)
                 (A) (A) (A) (A) (A) (A) (A) (A) (A) (A) (A) (A)
                 (A) (A) (A) (A) (A) (A) (A) (A) (A) (A) (A) (A)
                 (A) (A) (A) (A) (A) (A) (A) (A) (A) (A) (A) (A)
                 (A) (A) (A) (A) (A) (A) (A) (A) (A) (A) (A) (A)
                 (A) (A) (A) (A) (A) (A) (A) (A) (A) (A) (A) (A)
                 (A) (A) (A)
 The electronic state is 2-A.
 Alpha  occ. eigenvalues --  -19.64423 -10.59068 -10.57862 -10.54267 -10.53528
 Alpha  occ. eigenvalues --   -1.15218  -0.87678  -0.79961  -0.76103  -0.62997
 Alpha  occ. eigenvalues --   -0.55698  -0.54287  -0.53474  -0.48384  -0.45266
 Alpha  occ. eigenvalues --   -0.45010  -0.44177  -0.43207  -0.39596  -0.38714
 Alpha  occ. eigenvalues --   -0.20220
 Alpha virt. eigenvalues --    0.01351   0.02738   0.03574   0.04435   0.05215
 Alpha virt. eigenvalues --    0.06157   0.07392   0.07722   0.08182   0.09345
 Alpha virt. eigenvalues --    0.11763   0.12105   0.12853   0.13596   0.14686
 Alpha virt. eigenvalues --    0.15189   0.17873   0.18944   0.19835   0.21021
 Alpha virt. eigenvalues --    0.21994   0.22897   0.23787   0.25135   0.26271
 Alpha virt. eigenvalues --    0.27425   0.28211   0.30031   0.31870   0.32931
 Alpha virt. eigenvalues --    0.35644   0.37319   0.38781   0.41688   0.42971
 Alpha virt. eigenvalues --    0.43829   0.45256   0.46523   0.49629   0.51289
 Alpha virt. eigenvalues --    0.52579   0.54196   0.55220   0.55642   0.56555
 Alpha virt. eigenvalues --    0.57950   0.59561   0.60736   0.61330   0.62442
 Alpha virt. eigenvalues --    0.64164   0.64630   0.65898   0.67511   0.68958
 Alpha virt. eigenvalues --    0.70629   0.71431   0.77675   0.79240   0.80584
 Alpha virt. eigenvalues --    0.83558   0.87144   0.87796   0.92320   0.92858
 Alpha virt. eigenvalues --    0.95445   0.97345   1.00282   1.02127   1.03358
 Alpha virt. eigenvalues --    1.05006   1.07796   1.11012   1.11567   1.13654
 Alpha virt. eigenvalues --    1.15675   1.16653   1.18627   1.19071   1.19691
 Alpha virt. eigenvalues --    1.20565   1.24245   1.24562   1.25834   1.27256
 Alpha virt. eigenvalues --    1.28627   1.30322   1.33387   1.34726   1.35892
 Alpha virt. eigenvalues --    1.37340   1.38964   1.39851   1.42929   1.43281
 Alpha virt. eigenvalues --    1.45068   1.46691   1.48639   1.50322   1.51682
 Alpha virt. eigenvalues --    1.55592   1.56243   1.57972   1.59144   1.61689
 Alpha virt. eigenvalues --    1.64291   1.69108   1.75181   1.80502   1.96481
 Alpha virt. eigenvalues --    2.04692   2.17432   2.25874   2.30975   2.39095
 Alpha virt. eigenvalues --    2.44160   2.46918   2.50665   2.55400   2.59384
 Alpha virt. eigenvalues --    2.61320   2.71218   2.74332   2.78411   2.82734
 Alpha virt. eigenvalues --    2.85426   2.88460   2.89374   2.92279   2.95346
 Alpha virt. eigenvalues --    2.97641   2.99988   3.06091   3.07819   3.08052
 Alpha virt. eigenvalues --    3.09082   3.10228   3.11971   3.13860   3.16275
 Alpha virt. eigenvalues --    3.16896   3.19950   3.23299   3.23875   3.25637
 Alpha virt. eigenvalues --    3.26419   3.29254   3.30477   3.34887   3.37176
 Alpha virt. eigenvalues --    3.38238   3.39410   3.44433   3.45697   3.47493
 Alpha virt. eigenvalues --    3.50934   3.53308   3.55027   3.60370   3.61182
 Alpha virt. eigenvalues --    3.62763   3.64372   3.65592   3.69819   3.72185
 Alpha virt. eigenvalues --    3.75659   3.78498   3.80789   3.81679   3.82020
 Alpha virt. eigenvalues --    3.83521   3.86135   3.88072   3.93966   3.96275
 Alpha virt. eigenvalues --    4.02995   4.04554   4.07182   4.11535   4.13831
 Alpha virt. eigenvalues --    4.16306   4.17600   4.20769   4.22361   4.24017
 Alpha virt. eigenvalues --    4.25868   4.26896   4.30849   4.31445   4.33238
 Alpha virt. eigenvalues --    4.36362   4.40111   4.46778   4.48409   4.49111
 Alpha virt. eigenvalues --    4.50001   4.57544   4.61638   4.62263   4.74141
 Alpha virt. eigenvalues --    4.82822   4.92200   5.08093   5.20003   5.23319
 Alpha virt. eigenvalues --    5.29420   5.42082   5.42806   5.44451   5.47391
 Alpha virt. eigenvalues --    5.47785   5.49796   5.53468   5.57877   5.65521
 Alpha virt. eigenvalues --    5.70260   5.75024   6.16207   6.35688   6.55785
 Alpha virt. eigenvalues --    7.11996   7.24305   7.26528   7.66242   7.71431
 Alpha virt. eigenvalues --   24.12863  24.25156  24.31215  24.49415  50.18033
  Beta  occ. eigenvalues --  -19.64116 -10.59076 -10.57096 -10.54332 -10.53593
  Beta  occ. eigenvalues --   -1.14125  -0.86019  -0.79629  -0.75886  -0.61464
  Beta  occ. eigenvalues --   -0.54753  -0.52948  -0.52331  -0.46827  -0.44986
  Beta  occ. eigenvalues --   -0.44081  -0.43775  -0.42830  -0.39109  -0.36234
  Beta virt. eigenvalues --    0.00741   0.02297   0.02918   0.03657   0.04108
  Beta virt. eigenvalues --    0.05341   0.06115   0.07294   0.07734   0.08116
  Beta virt. eigenvalues --    0.09402   0.11278   0.11958   0.12647   0.13623
  Beta virt. eigenvalues --    0.14629   0.15332   0.18215   0.18683   0.19762
  Beta virt. eigenvalues --    0.21220   0.22352   0.23083   0.23812   0.25571
  Beta virt. eigenvalues --    0.26637   0.27763   0.29024   0.30114   0.32180
  Beta virt. eigenvalues --    0.33615   0.36340   0.37469   0.38857   0.41756
  Beta virt. eigenvalues --    0.42952   0.43973   0.45379   0.46631   0.49845
  Beta virt. eigenvalues --    0.51609   0.52802   0.54141   0.55273   0.55887
  Beta virt. eigenvalues --    0.56793   0.58284   0.59512   0.61830   0.62105
  Beta virt. eigenvalues --    0.62833   0.64052   0.65219   0.65936   0.67901
  Beta virt. eigenvalues --    0.68781   0.70920   0.71503   0.77405   0.79430
  Beta virt. eigenvalues --    0.81222   0.83848   0.87174   0.87832   0.92334
  Beta virt. eigenvalues --    0.93013   0.95697   0.97482   1.00094   1.02273
  Beta virt. eigenvalues --    1.03333   1.05192   1.07853   1.11069   1.11462
  Beta virt. eigenvalues --    1.13739   1.15775   1.16851   1.18793   1.19072
  Beta virt. eigenvalues --    1.20032   1.20688   1.24355   1.24876   1.26280
  Beta virt. eigenvalues --    1.27520   1.29193   1.30593   1.33674   1.35025
  Beta virt. eigenvalues --    1.36086   1.37584   1.39188   1.40240   1.42775
  Beta virt. eigenvalues --    1.43459   1.44990   1.46292   1.48640   1.50375
  Beta virt. eigenvalues --    1.51582   1.55611   1.56113   1.57577   1.58972
  Beta virt. eigenvalues --    1.61743   1.64342   1.69728   1.75532   1.80780
  Beta virt. eigenvalues --    1.97296   2.05116   2.18001   2.26337   2.31598
  Beta virt. eigenvalues --    2.39589   2.45164   2.47658   2.51437   2.55907
  Beta virt. eigenvalues --    2.60003   2.61887   2.72527   2.75055   2.80950
  Beta virt. eigenvalues --    2.85183   2.88493   2.91106   2.91928   2.94078
  Beta virt. eigenvalues --    2.95873   2.97689   3.00309   3.06580   3.08182
  Beta virt. eigenvalues --    3.09080   3.09539   3.11480   3.13250   3.13985
  Beta virt. eigenvalues --    3.16962   3.17317   3.20046   3.23395   3.24558
  Beta virt. eigenvalues --    3.26194   3.27890   3.30205   3.31745   3.35812
  Beta virt. eigenvalues --    3.37951   3.39143   3.40861   3.45229   3.47420
  Beta virt. eigenvalues --    3.48224   3.52430   3.54104   3.55194   3.61345
  Beta virt. eigenvalues --    3.62518   3.64728   3.65484   3.66885   3.70554
  Beta virt. eigenvalues --    3.74419   3.76330   3.78854   3.80948   3.82312
  Beta virt. eigenvalues --    3.82619   3.84395   3.86348   3.88274   3.95081
  Beta virt. eigenvalues --    3.97025   4.03200   4.05189   4.08049   4.11818
  Beta virt. eigenvalues --    4.14136   4.16576   4.17782   4.20698   4.22581
  Beta virt. eigenvalues --    4.24410   4.26066   4.27035   4.30957   4.31753
  Beta virt. eigenvalues --    4.33262   4.36763   4.40593   4.47354   4.48666
  Beta virt. eigenvalues --    4.49326   4.52246   4.58654   4.64135   4.66706
  Beta virt. eigenvalues --    4.76790   4.85395   4.92332   5.08879   5.21325
  Beta virt. eigenvalues --    5.23663   5.30014   5.41936   5.43425   5.44468
  Beta virt. eigenvalues --    5.47147   5.47549   5.50062   5.54622   5.58460
  Beta virt. eigenvalues --    5.66147   5.70484   5.75685   6.16713   6.35917
  Beta virt. eigenvalues --    6.56224   7.12509   7.24919   7.27247   7.66356
  Beta virt. eigenvalues --    7.71271  24.13297  24.25132  24.31294  24.50390
  Beta virt. eigenvalues --   50.17873
          Condensed to atoms (all electrons):
               1          2          3          4          5          6
     1  O    8.205991   0.014324  -0.208562   0.114458   0.172584   0.005513
     2  C    0.014324   5.461668  -0.197231  -0.066226   0.001160   0.377584
     3  C   -0.208562  -0.197231   5.588582  -0.002928   0.103448   0.028882
     4  C    0.114458  -0.066226  -0.002928   5.015956  -0.062824   0.000331
     5  C    0.172584   0.001160   0.103448  -0.062824   5.887508  -0.046966
     6  H    0.005513   0.377584   0.028882   0.000331  -0.046966   0.543465
     7  H   -0.004217   0.421230  -0.020523  -0.000364  -0.040947  -0.014960
     8  H    0.005957   0.461163   0.005948  -0.009247  -0.100354  -0.035087
     9  H    0.005217  -0.019085   0.421555   0.000442  -0.047456   0.001873
    10  H    0.007710   0.033793   0.396456  -0.000837  -0.072355  -0.005029
    11  H   -0.002051   0.002125   0.409525   0.003509  -0.029855   0.000049
    12  H   -0.035728  -0.012735  -0.014685   0.426331   0.002043  -0.000805
    13  H   -0.051074  -0.001246   0.005399   0.417006   0.017083   0.000026
    14  H   -0.038751  -0.006391   0.006148   0.424623  -0.003685   0.000594
               7          8          9         10         11         12
     1  O   -0.004217   0.005957   0.005217   0.007710  -0.002051  -0.035728
     2  C    0.421230   0.461163  -0.019085   0.033793   0.002125  -0.012735
     3  C   -0.020523   0.005948   0.421555   0.396456   0.409525  -0.014685
     4  C   -0.000364  -0.009247   0.000442  -0.000837   0.003509   0.426331
     5  C   -0.040947  -0.100354  -0.047456  -0.072355  -0.029855   0.002043
     6  H   -0.014960  -0.035087   0.001873  -0.005029   0.000049  -0.000805
     7  H    0.580529  -0.045103   0.000594  -0.000141  -0.000349  -0.007964
     8  H   -0.045103   0.566400  -0.000793   0.002038   0.000265   0.003203
     9  H    0.000594  -0.000793   0.575214  -0.042507  -0.028159  -0.000187
    10  H   -0.000141   0.002038  -0.042507   0.576474  -0.020437   0.000081
    11  H   -0.000349   0.000265  -0.028159  -0.020437   0.525491   0.000054
    12  H   -0.007964   0.003203  -0.000187   0.000081   0.000054   0.596022
    13  H    0.001064  -0.000133   0.000015   0.000011  -0.000113  -0.024537
    14  H   -0.003512  -0.003683   0.000052  -0.000060  -0.000000  -0.050407
              13         14
     1  O   -0.051074  -0.038751
     2  C   -0.001246  -0.006391
     3  C    0.005399   0.006148
     4  C    0.417006   0.424623
     5  C    0.017083  -0.003685
     6  H    0.000026   0.000594
     7  H    0.001064  -0.003512
     8  H   -0.000133  -0.003683
     9  H    0.000015   0.000052
    10  H    0.000011  -0.000060
    11  H   -0.000113  -0.000000
    12  H   -0.024537  -0.050407
    13  H    0.522970  -0.022266
    14  H   -0.022266   0.555904
          Atomic-Atomic Spin Densities.
               1          2          3          4          5          6
     1  O    0.205494   0.021262   0.020487   0.014512  -0.216856   0.000168
     2  C    0.021262  -0.027738  -0.000954   0.003121  -0.081515  -0.002772
     3  C    0.020487  -0.000954  -0.008556  -0.002876  -0.096538   0.007121
     4  C    0.014512   0.003121  -0.002876  -0.003342  -0.006316   0.000470
     5  C   -0.216856  -0.081515  -0.096538  -0.006316   1.404541  -0.016525
     6  H    0.000168  -0.002772   0.007121   0.000470  -0.016525   0.032803
     7  H    0.002247   0.000559  -0.005656   0.006196  -0.016457   0.009370
     8  H    0.006470   0.038867   0.010848  -0.002440  -0.061102  -0.015623
     9  H    0.002740  -0.005436   0.056430  -0.000024  -0.065740   0.002748
    10  H    0.001954   0.007987  -0.000676   0.000101  -0.015117  -0.002669
    11  H    0.001520   0.003230  -0.009094   0.000484   0.001852  -0.000253
    12  H   -0.007556   0.004271  -0.000767  -0.002342   0.010826  -0.001113
    13  H   -0.000327  -0.000404   0.000378  -0.000547   0.001202   0.000002
    14  H   -0.004314  -0.006224  -0.001264   0.000576   0.009706   0.000440
               7          8          9         10         11         12
     1  O    0.002247   0.006470   0.002740   0.001954   0.001520  -0.007556
     2  C    0.000559   0.038867  -0.005436   0.007987   0.003230   0.004271
     3  C   -0.005656   0.010848   0.056430  -0.000676  -0.009094  -0.000767
     4  C    0.006196  -0.002440  -0.000024   0.000101   0.000484  -0.002342
     5  C   -0.016457  -0.061102  -0.065740  -0.015117   0.001852   0.010826
     6  H    0.009370  -0.015623   0.002748  -0.002669  -0.000253  -0.001113
     7  H    0.039799  -0.018473   0.000848  -0.000693  -0.000137  -0.008623
     8  H   -0.018473   0.103310  -0.001390   0.004013   0.000412   0.002719
     9  H    0.000848  -0.001390   0.070408  -0.014666  -0.006633  -0.000301
    10  H   -0.000693   0.004013  -0.014666   0.040951   0.005038   0.000133
    11  H   -0.000137   0.000412  -0.006633   0.005038   0.010184   0.000092
    12  H   -0.008623   0.002719  -0.000301   0.000133   0.000092   0.011869
    13  H    0.000018  -0.000010  -0.000001   0.000001   0.000002  -0.000103
    14  H    0.003700  -0.004104   0.000095  -0.000142  -0.000086  -0.004052
              13         14
     1  O   -0.000327  -0.004314
     2  C   -0.000404  -0.006224
     3  C    0.000378  -0.001264
     4  C   -0.000547   0.000576
     5  C    0.001202   0.009706
     6  H    0.000002   0.000440
     7  H    0.000018   0.003700
     8  H   -0.000010  -0.004104
     9  H   -0.000001   0.000095
    10  H    0.000001  -0.000142
    11  H    0.000002  -0.000086
    12  H   -0.000103  -0.004052
    13  H   -0.001135   0.000391
    14  H    0.000391   0.008026
 Mulliken charges and spin densities:
               1          2
     1  O   -0.191373   0.047801
     2  C   -0.470134  -0.045744
     3  C   -0.522016  -0.031117
     4  C   -0.260230   0.007573
     5  C    0.220616   0.851961
     6  H    0.144531   0.014166
     7  H    0.134664   0.012697
     8  H    0.149425   0.063494
     9  H    0.133225   0.039077
    10  H    0.124802   0.026214
    11  H    0.139946   0.006610
    12  H    0.119316   0.005053
    13  H    0.135794  -0.000533
    14  H    0.141433   0.002747
 Sum of Mulliken charges =  -0.00000   1.00000
 Mulliken charges and spin densities with hydrogens summed into heavy atoms:
               1          2
     1  O   -0.191373   0.047801
     2  C   -0.041513   0.044613
     3  C   -0.124043   0.040785
     4  C    0.136313   0.014840
     5  C    0.220616   0.851961
 APT charges:
               1
     1  O   -0.208508
     2  C   -1.327311
     3  C   -1.286622
     4  C   -1.119020
     5  C    0.418060
     6  H    0.450095
     7  H    0.326916
     8  H    0.353019
     9  H    0.422869
    10  H    0.407308
    11  H    0.379659
    12  H    0.292444
    13  H    0.547574
    14  H    0.343517
 Sum of APT charges =  -0.00000
 APT charges with hydrogens summed into heavy atoms:
               1
     1  O   -0.208508
     2  C   -0.197281
     3  C   -0.076786
     4  C    0.064515
     5  C    0.418060
 Electronic spatial extent (au):  <R**2>=            500.3336
 Charge=             -0.0000 electrons
 Dipole moment (field-independent basis, Debye):
    X=             -0.4261    Y=              1.3878    Z=              0.0858  Tot=              1.4542
 Quadrupole moment (field-independent basis, Debye-Ang):
   XX=            -29.4032   YY=            -34.2609   ZZ=            -33.7027
   XY=             -0.5414   XZ=              0.0931   YZ=             -0.1838
 Traceless Quadrupole moment (field-independent basis, Debye-Ang):
   XX=              3.0524   YY=             -1.8053   ZZ=             -1.2471
   XY=             -0.5414   XZ=              0.0931   YZ=             -0.1838
 Octapole moment (field-independent basis, Debye-Ang**2):
  XXX=             -9.7772  YYY=             -3.1759  ZZZ=              0.8859  XYY=             -0.1590
  XXY=             -2.6556  XXZ=             -0.7120  XZZ=             -1.3613  YZZ=             -0.0303
  YYZ=             -0.2703  XYZ=             -0.0761
 Hexadecapole moment (field-independent basis, Debye-Ang**3):
 XXXX=           -409.4916 YYYY=           -218.4493 ZZZZ=            -60.0129 XXXY=             10.8839
 XXXZ=             -0.2637 YYYX=              2.0895 YYYZ=             -3.3301 ZZZX=             -1.2903
 ZZZY=              0.9903 XXYY=           -101.1701 XXZZ=            -78.3532 YYZZ=            -46.0135
 XXYZ=             -0.2326 YYXZ=              0.5950 ZZXY=             -0.4731
 N-N= 1.845864537094D+02 E-N=-9.117173700753D+02  KE= 2.315428312612D+02
  Exact polarizability:   0.000   0.000   0.000   0.000   0.000   0.000
 Approx polarizability:  68.720   0.901  64.932  -0.471   1.154  59.409
                          Isotropic Fermi Contact Couplings
        Atom                 a.u.       MegaHertz       Gauss      10(-4) cm-1
     1  O(17)              0.03169     -19.20968      -6.85449      -6.40766
     2  C(13)             -0.02859     -32.14010     -11.46839     -10.72078
     3  C(13)             -0.03079     -34.61189     -12.35038     -11.54528
     4  C(13)             -0.00350      -3.93308      -1.40342      -1.31193
     5  C(13)              0.17408     195.70122      69.83106      65.27890
     6  H(1)               0.00661      29.53959      10.54046       9.85335
     7  H(1)               0.00662      29.58697      10.55737       9.86915
     8  H(1)               0.03079     137.61246      49.10355      45.90258
     9  H(1)               0.02349     104.99291      37.46408      35.02187
    10  H(1)               0.01326      59.26559      21.14744      19.76887
    11  H(1)               0.00220       9.84517       3.51300       3.28399
    12  H(1)               0.00155       6.91670       2.46805       2.30716
    13  H(1)              -0.00059      -2.63529      -0.94034      -0.87904
    14  H(1)               0.00127       5.69676       2.03275       1.90024
 --------------------------------------------------------
       Center         ----  Spin Dipole Couplings  ----
                      3XX-RR        3YY-RR        3ZZ-RR
 --------------------------------------------------------
     1   Atom       -0.330436     -0.367238      0.697674
     2   Atom       -0.007250      0.017724     -0.010474
     3   Atom        0.011162     -0.005986     -0.005176
     4   Atom        0.014410     -0.005037     -0.009374
     5   Atom       -0.544763     -0.547203      1.091966
     6   Atom       -0.007637      0.015802     -0.008165
     7   Atom       -0.001894      0.010081     -0.008187
     8   Atom       -0.007233      0.010128     -0.002894
     9   Atom        0.013123     -0.006012     -0.007111
    10   Atom        0.012251     -0.006997     -0.005255
    11   Atom        0.001382      0.004797     -0.006180
    12   Atom        0.011630     -0.005511     -0.006120
    13   Atom        0.008395     -0.004380     -0.004016
    14   Atom        0.007853     -0.004211     -0.003643
 --------------------------------------------------------
                        XY            XZ            YZ
 --------------------------------------------------------
     1   Atom       -0.057679     -0.014089      0.021602
     2   Atom       -0.004967     -0.000542      0.002905
     3   Atom       -0.011019      0.003586     -0.002340
     4   Atom       -0.001592     -0.001845      0.000318
     5   Atom        0.000557      0.042974      0.030091
     6   Atom        0.006413     -0.000020     -0.002248
     7   Atom       -0.011545      0.000382     -0.001794
     8   Atom       -0.002598     -0.001321      0.008967
     9   Atom       -0.008258     -0.006809      0.002324
    10   Atom       -0.002209      0.007754     -0.001122
    11   Atom       -0.011144      0.004124     -0.003577
    12   Atom       -0.004706      0.004054     -0.000973
    13   Atom        0.002345     -0.000112     -0.000151
    14   Atom       -0.002848     -0.005815      0.001123
 --------------------------------------------------------


 ---------------------------------------------------------------------------------
              Anisotropic Spin Dipole Couplings in Principal Axis System
 ---------------------------------------------------------------------------------

       Atom             a.u.   MegaHertz   Gauss  10(-4) cm-1        Axes

              Baa    -0.4095    29.628    10.572     9.883  0.5886  0.8084 -0.0083
     1 O(17)  Bbb    -0.2889    20.903     7.459     6.973  0.8083 -0.5883  0.0244
              Bcc     0.6983   -50.531   -18.031   -16.855 -0.0149  0.0211  0.9997
 
              Baa    -0.0108    -1.445    -0.516    -0.482  0.0133 -0.0991  0.9950
     2 C(13)  Bbb    -0.0082    -1.101    -0.393    -0.367  0.9822  0.1876  0.0056
              Bcc     0.0190     2.546     0.908     0.849 -0.1872  0.9772  0.0999
 
              Baa    -0.0114    -1.533    -0.547    -0.511  0.4245  0.9006  0.0936
     3 C(13)  Bbb    -0.0059    -0.796    -0.284    -0.265 -0.2077 -0.0038  0.9782
              Bcc     0.0174     2.328     0.831     0.777  0.8813 -0.4347  0.1854
 
              Baa    -0.0095    -1.278    -0.456    -0.426  0.0739 -0.0443  0.9963
     4 C(13)  Bbb    -0.0052    -0.692    -0.247    -0.231  0.0846  0.9957  0.0380
              Bcc     0.0147     1.970     0.703     0.657  0.9937 -0.0815 -0.0773
 
              Baa    -0.5478   -73.507   -26.229   -24.519  0.1213  0.9924 -0.0214
     5 C(13)  Bbb    -0.5459   -73.249   -26.137   -24.433  0.9923 -0.1218 -0.0238
              Bcc     1.0936   146.757    52.366    48.953  0.0262  0.0183  0.9995
 
              Baa    -0.0095    -5.080    -1.813    -1.695  0.8728 -0.2578 -0.4144
     6 H(1)   Bbb    -0.0081    -4.324    -1.543    -1.442  0.4220 -0.0280  0.9062
              Bcc     0.0176     9.405     3.356     3.137  0.2452  0.9658 -0.0844
 
              Baa    -0.0093    -4.954    -1.768    -1.652  0.7093  0.4714  0.5240
     7 H(1)   Bbb    -0.0079    -4.232    -1.510    -1.412 -0.4793 -0.2226  0.8490
              Bcc     0.0172     9.186     3.278     3.064 -0.5169  0.8533 -0.0680
 
              Baa    -0.0076    -4.063    -1.450    -1.355  0.9914  0.1242  0.0416
     8 H(1)   Bbb    -0.0075    -3.983    -1.421    -1.328  0.0192 -0.4518  0.8919
              Bcc     0.0151     8.045     2.871     2.684 -0.1295  0.8834  0.4503
 
              Baa    -0.0093    -4.966    -1.772    -1.657  0.4185  0.5269  0.7397
     9 H(1)   Bbb    -0.0089    -4.763    -1.699    -1.589  0.1029  0.7818 -0.6150
              Bcc     0.0182     9.729     3.472     3.245  0.9024 -0.3335 -0.2730
 
              Baa    -0.0083    -4.410    -1.573    -1.471 -0.3178  0.2543  0.9134
    10 H(1)   Bbb    -0.0072    -3.840    -1.370    -1.281  0.1895  0.9610 -0.2015
              Bcc     0.0155     8.250     2.944     2.752  0.9290 -0.1090  0.3536
 
              Baa    -0.0087    -4.639    -1.655    -1.547  0.7159  0.4497 -0.5341
    11 H(1)   Bbb    -0.0070    -3.737    -1.333    -1.247  0.2828  0.5128  0.8106
              Bcc     0.0157     8.376     2.989     2.794 -0.6384  0.7314 -0.2399
 
              Baa    -0.0070    -3.740    -1.334    -1.247 -0.2471 -0.1546  0.9566
    12 H(1)   Bbb    -0.0067    -3.577    -1.276    -1.193  0.2002  0.9578  0.2065
              Bcc     0.0137     7.317     2.611     2.441  0.9481 -0.2425  0.2057
 
              Baa    -0.0048    -2.570    -0.917    -0.857 -0.1713  0.9723  0.1589
    13 H(1)   Bbb    -0.0040    -2.132    -0.761    -0.711  0.0382 -0.1546  0.9872
              Bcc     0.0088     4.703     1.678     1.569  0.9845  0.1751 -0.0107
 
              Baa    -0.0061    -3.241    -1.156    -1.081  0.3931  0.0477  0.9182
    14 H(1)   Bbb    -0.0048    -2.576    -0.919    -0.859  0.1643  0.9789 -0.1212
              Bcc     0.0109     5.817     2.076     1.940  0.9047 -0.1985 -0.3770
 

 ---------------------------------------------------------------------------------

 No NMR shielding tensors so no spin-rotation constants.
 Leave Link  601 at Sat Mar  9 01:42:53 2019, MaxMem=   671088640 cpu:              12.7 elap:               0.7
 (Enter /shared/centos7/gaussian/g16/l701.exe)
 SCFChk:  SCF convergence  6.34D-09 required  1.00D-08
 ... and contract with generalized density number  0.
 Compute integral second derivatives.
 Entering OneElI...
 Calculate overlap and kinetic energy integrals
    NBasis = 276  MinDer = 2  MaxDer = 2
 Requested accuracy = 0.1000D-12
 PrmmSu-InSpLW:  IPartL=    0 NPrtUS=   20 NPrtUL=    1 DoSpLW=F IThBeg=    0 IThEnd=   19 NThAct=   20.
 PrsmSu:  NPrtUS=  20 ThrOK=T IAlg=1 NPAlg=1 LenDen=           0 ISkipM=0 DoSpLW=F IThBeg=    0 IThEnd=   19.
 Prism:   IPart=     0 DynPar=F LinDyn=F Incr=           1.
 PRISM was handed    33457170 working-precision words and  3654 shell-pairs
 PRISM was handed    33457170 working-precision words and  3654 shell-pairs
 PRISM was handed    33457170 working-precision words and  3654 shell-pairs
 PRISM was handed    33457170 working-precision words and  3654 shell-pairs
 PRISM was handed    33457170 working-precision words and  3654 shell-pairs
 PRISM was handed    33457170 working-precision words and  3654 shell-pairs
 PRISM was handed    33457170 working-precision words and  3654 shell-pairs
 PRISM was handed    33457170 working-precision words and  3654 shell-pairs
 PRISM was handed    33457170 working-precision words and  3654 shell-pairs
 PRISM was handed    33457170 working-precision words and  3654 shell-pairs
 PRISM was handed    33457170 working-precision words and  3654 shell-pairs
 PRISM was handed    33457170 working-precision words and  3654 shell-pairs
 PRISM was handed    33457170 working-precision words and  3654 shell-pairs
 PRISM was handed    33457170 working-precision words and  3654 shell-pairs
 PRISM was handed    33457170 working-precision words and  3654 shell-pairs
 PRISM was handed    33457170 working-precision words and  3654 shell-pairs
 PRISM was handed    33457170 working-precision words and  3654 shell-pairs
 PRISM was handed    33457170 working-precision words and  3654 shell-pairs
 PRISM was handed    33457170 working-precision words and  3654 shell-pairs
 PRISM was handed    33457170 working-precision words and  3654 shell-pairs
 IPart=  0 NShTot=         214 NBatch=          54 AvBLen=         4.0
 IPart= 18 NShTot=         163 NBatch=          29 AvBLen=         5.6
 IPart= 19 NShTot=         163 NBatch=          29 AvBLen=         5.6
 IPart= 15 NShTot=         165 NBatch=          29 AvBLen=         5.7
 IPart= 16 NShTot=         164 NBatch=          29 AvBLen=         5.7
 IPart= 17 NShTot=         163 NBatch=          29 AvBLen=         5.6
 IPart=  6 NShTot=         189 NBatch=          38 AvBLen=         5.0
 IPart=  1 NShTot=         210 NBatch=          51 AvBLen=         4.1
 IPart=  5 NShTot=         191 NBatch=          40 AvBLen=         4.8
 IPart=  7 NShTot=         187 NBatch=          37 AvBLen=         5.1
 IPart=  4 NShTot=         201 NBatch=          45 AvBLen=         4.5
 IPart= 12 NShTot=         172 NBatch=          32 AvBLen=         5.4
 IPart= 11 NShTot=         173 NBatch=          33 AvBLen=         5.2
 IPart=  9 NShTot=         185 NBatch=          37 AvBLen=         5.0
 IPart= 10 NShTot=         174 NBatch=          34 AvBLen=         5.1
 IPart=  8 NShTot=         186 NBatch=          37 AvBLen=         5.0
 IPart=  2 NShTot=         208 NBatch=          49 AvBLen=         4.2
 IPart= 14 NShTot=         170 NBatch=          31 AvBLen=         5.5
 IPart= 13 NShTot=         171 NBatch=          32 AvBLen=         5.3
 IPart=  3 NShTot=         205 NBatch=          48 AvBLen=         4.3
 PrSmSu:  NxtVal=             21.
 Entering OneElI...
 Calculate potential energy integrals
    NBasis = 276  MinDer = 2  MaxDer = 2
 Requested accuracy = 0.1000D-12
 PrmmSu-InSpLW:  IPartL=    0 NPrtUS=   20 NPrtUL=    1 DoSpLW=F IThBeg=    0 IThEnd=   19 NThAct=   20.
 PrsmSu:  NPrtUS=  20 ThrOK=T IAlg=1 NPAlg=1 LenDen=           0 ISkipM=0 DoSpLW=F IThBeg=    0 IThEnd=   19.
 Prism:   IPart=     0 DynPar=F LinDyn=F Incr=          24.
 PRISM was handed    33469926 working-precision words and  3478 shell-pairs
 PRISM was handed    33469926 working-precision words and  3478 shell-pairs
 PRISM was handed    33469926 working-precision words and  3478 shell-pairs
 PRISM was handed    33469926 working-precision words and  3478 shell-pairs
 PRISM was handed    33469926 working-precision words and  3478 shell-pairs
 PRISM was handed    33469926 working-precision words and  3478 shell-pairs
 PRISM was handed    33469926 working-precision words and  3478 shell-pairs
 PRISM was handed    33469926 working-precision words and  3478 shell-pairs
 PRISM was handed    33469926 working-precision words and  3478 shell-pairs
 PRISM was handed    33469926 working-precision words and  3478 shell-pairs
 PRISM was handed    33469926 working-precision words and  3478 shell-pairs
 PRISM was handed    33469926 working-precision words and  3478 shell-pairs
 PRISM was handed    33469926 working-precision words and  3478 shell-pairs
 PRISM was handed    33469926 working-precision words and  3478 shell-pairs
 PRISM was handed    33469926 working-precision words and  3478 shell-pairs
 PRISM was handed    33469926 working-precision words and  3478 shell-pairs
 PRISM was handed    33469926 working-precision words and  3478 shell-pairs
 PRISM was handed    33469926 working-precision words and  3478 shell-pairs
 PRISM was handed    33469926 working-precision words and  3478 shell-pairs
 PRISM was handed    33469926 working-precision words and  3478 shell-pairs
 IPart= 18 NShTot=        2198 NBatch=         157 AvBLen=        14.0
 IPart= 17 NShTot=        2212 NBatch=         158 AvBLen=        14.0
 IPart= 16 NShTot=        2240 NBatch=         160 AvBLen=        14.0
 IPart= 15 NShTot=        2240 NBatch=         160 AvBLen=        14.0
 IPart=  0 NShTot=        2884 NBatch=         206 AvBLen=        14.0
 IPart=  9 NShTot=        2352 NBatch=         168 AvBLen=        14.0
 IPart=  3 NShTot=        2716 NBatch=         194 AvBLen=        14.0
 IPart= 10 NShTot=        2338 NBatch=         167 AvBLen=        14.0
 IPart= 13 NShTot=        2296 NBatch=         164 AvBLen=        14.0
 IPart=  8 NShTot=        2394 NBatch=         171 AvBLen=        14.0
 IPart= 19 NShTot=        2184 NBatch=         156 AvBLen=        14.0
 IPart=  5 NShTot=        2548 NBatch=         182 AvBLen=        14.0
 IPart= 14 NShTot=        2282 NBatch=         163 AvBLen=        14.0
 IPart= 11 NShTot=        2310 NBatch=         165 AvBLen=        14.0
 IPart=  4 NShTot=        2632 NBatch=         188 AvBLen=        14.0
 IPart=  7 NShTot=        2422 NBatch=         173 AvBLen=        14.0
 IPart=  6 NShTot=        2464 NBatch=         176 AvBLen=        14.0
 IPart=  2 NShTot=        2800 NBatch=         200 AvBLen=        14.0
 IPart=  1 NShTot=        2870 NBatch=         205 AvBLen=        14.0
 IPart= 12 NShTot=        2310 NBatch=         165 AvBLen=        14.0
 PrSmSu:  NxtVal=            481.
 Polarizability after L701:
                1             2             3 
      1  0.000000D+00
      2  0.000000D+00  0.000000D+00
      3  0.000000D+00  0.000000D+00  0.000000D+00
 Dipole Derivatives after L701:
                 1             2             3             4             5 
      1   0.143636D-01 -0.183253D+00  0.937033D-02 -0.961212D+00 -0.911770D-01
      2   0.988947D-02 -0.350372D+00 -0.227839D-01  0.354187D-01 -0.188267D+01
      3  -0.140283D-01 -0.227603D-01 -0.289517D+00 -0.704725D-01  0.136371D-01
                 6             7             8             9            10 
      1  -0.982150D-01 -0.175955D+01  0.326915D+00  0.392185D-01 -0.172797D+01
      2  -0.196777D+00  0.313726D+00 -0.103284D+01 -0.446827D-01 -0.264018D+00
      3  -0.113806D+01  0.386579D-01 -0.514210D-01 -0.106748D+01  0.253857D-01
                11            12            13            14            15 
      1   0.351744D+00  0.216763D-01  0.309159D+00 -0.106818D+00  0.778069D-01
      2  -0.695067D+00  0.147675D-01 -0.220312D+00  0.613293D+00  0.168430D+00
      3   0.334283D-01 -0.934027D+00  0.298521D-01  0.637112D-01  0.331728D+00
                16            17            18            19            20 
      1   0.500235D+00  0.249371D+00 -0.221239D+00  0.446718D+00 -0.555092D-01
      2   0.660757D+00  0.609753D+00 -0.362577D+00 -0.697700D+00  0.297884D+00
      3  -0.177605D+00 -0.984676D-01  0.240297D+00  0.212290D+00 -0.280402D-01
                21            22            23            24            25 
      1   0.127624D+00  0.120574D+00  0.259632D-01  0.951600D-01  0.639087D+00
      2  -0.229310D+00 -0.291047D-01  0.376128D+00  0.658527D+00 -0.146286D+00
      3   0.236148D+00 -0.106009D-01  0.107054D+00  0.562355D+00 -0.181286D+00
                26            27            28            29            30 
      1  -0.379507D-01 -0.811054D+00  0.782349D+00  0.510673D+00  0.573942D+00
      2   0.120042D+00  0.215957D+00 -0.222180D-01  0.119132D+00  0.232174D-01
      3   0.108525D-04  0.509477D+00  0.192150D+00  0.187051D+00  0.320442D+00
                31            32            33            34            35 
      1   0.108037D+00 -0.728326D+00  0.223157D+00  0.177300D+00 -0.622104D+00
      2   0.276697D-01  0.861872D+00 -0.246045D+00  0.235235D-01  0.275525D+00
      3  -0.204529D-01 -0.175312D+00  0.169069D+00 -0.209472D-01 -0.274424D+00
                36            37            38            39            40 
      1   0.538910D+00  0.105618D+01  0.860864D+00  0.128041D+00  0.294724D+00
      2  -0.140580D+00  0.323198D+00  0.470069D+00  0.496836D-01 -0.145440D-01
      3   0.424508D+00  0.269138D-01  0.321450D-01  0.116476D+00 -0.298559D-01
                41            42 
      1  -0.500392D+00 -0.704398D+00
      2   0.217244D+00  0.112174D+00
      3   0.213388D+00  0.518584D+00
 Hessian after L701:
                1             2             3             4             5 
      1  0.139737D+01
      2 -0.144636D+01  0.796875D+01
      3  0.324939D+00  0.276379D+00  0.125857D+02
      4 -0.243391D+00  0.329756D+00  0.127970D-01  0.123696D+02
      5  0.342021D+00  0.787531D+00  0.484262D-01  0.179415D+00  0.853002D+01
      6 -0.222525D-02  0.233190D-01 -0.331085D+00 -0.734051D-01 -0.102559D+00
      7  0.696173D+00 -0.143035D+00  0.851291D-01  0.506977D-01 -0.964895D-01
      8 -0.659336D-02 -0.123255D+00  0.858391D-02 -0.180393D+00  0.125558D+00
      9  0.575726D-01  0.126476D-01 -0.958042D-01  0.438379D-01 -0.583215D-01
     10 -0.404810D+00 -0.271648D+01  0.568905D-01  0.118549D+00  0.119902D+00
     11 -0.269692D+01 -0.472447D+01  0.140351D-01  0.314306D+00  0.110724D-01
     12  0.533818D-01 -0.146542D-02 -0.635227D+01 -0.604819D-01 -0.522314D-01
     13 -0.168146D+01  0.361709D+01 -0.513157D+00 -0.548991D+01 -0.736882D+00
     14  0.354424D+01 -0.427607D+01 -0.356356D+00 -0.701109D+00 -0.455640D+00
     15 -0.467983D+00 -0.326415D+00 -0.617759D+01 -0.318618D-01  0.215659D+00
     16  0.238873D-01  0.102244D+00 -0.137097D-01 -0.206688D+01  0.988710D+00
     17  0.888735D-01  0.908014D-01 -0.131617D-01  0.108153D+01 -0.258374D+01
     18 -0.253970D-01 -0.356552D-01 -0.375018D-01 -0.784193D+00 -0.592097D+00
     19 -0.404831D-01 -0.465398D-01  0.551226D-02 -0.151050D+01 -0.667979D+00
     20  0.206806D-01  0.947344D-01  0.244934D-01 -0.896373D+00 -0.338961D+01
     21 -0.545113D-02 -0.113716D-01 -0.448755D-01  0.970811D+00 -0.307562D+00
     22 -0.345508D-01  0.397692D-01  0.749908D-02 -0.337047D+01 -0.156469D-01
     23  0.399015D-01  0.856673D-01  0.219999D-01 -0.317832D-01 -0.300501D+01
     24  0.232585D-01  0.719565D-01 -0.320653D-01 -0.773146D-01  0.911347D+00
     25  0.122903D+00  0.140572D-01 -0.405331D-01  0.175489D-01 -0.100433D-01
     26  0.113085D-01 -0.457550D-01 -0.649385D-02 -0.168731D-01  0.330023D-02
     27 -0.849771D-01 -0.770836D-02 -0.216038D-01 -0.224093D-01  0.994152D-02
     28  0.136506D+00  0.551116D-01  0.405867D-01  0.774228D-01 -0.798117D-01
     29  0.652576D-01 -0.311815D-01  0.176571D-01 -0.352584D-01 -0.523282D-01
     30  0.641705D-01  0.193245D-01 -0.346474D-01  0.611854D-01 -0.281563D-01
     31  0.977729D-01 -0.164595D-01  0.561154D-02 -0.184556D-01 -0.347243D-01
     32 -0.105633D+00 -0.374969D-01 -0.880907D-02 -0.417636D-01  0.740115D-01
     33  0.389570D-01 -0.836439D-02 -0.595828D-01  0.638428D-02 -0.165423D-01
     34 -0.353309D-01  0.571563D-01  0.114677D+00 -0.165148D-01 -0.438976D-01
     35 -0.203360D-01  0.744600D-01 -0.204260D+00 -0.482760D-01 -0.229733D-01
     36  0.123286D+00 -0.183066D+00  0.263607D+00  0.231482D-01 -0.134131D-01
     37  0.193537D-01  0.876686D-01  0.312186D-01  0.236392D-01  0.295237D-01
     38  0.153555D+00  0.930933D-01  0.139323D-01  0.361699D-01  0.868624D-02
     39  0.332622D-01  0.857792D-02  0.428163D-01  0.325625D-02  0.248627D-02
     40 -0.539473D-01  0.660198D-01 -0.117461D+00  0.586789D-01  0.259036D-01
     41  0.100004D-01  0.431868D-01  0.163573D+00  0.106503D-01 -0.308744D-01
     42 -0.132794D+00  0.161841D+00  0.294886D+00 -0.717543D-01 -0.169777D-01
                6             7             8             9            10 
      6  0.134783D+02
      7  0.561031D-01  0.849540D+01
      8 -0.605227D-01  0.145322D+01  0.120960D+02
      9 -0.126346D+00 -0.173605D+00  0.738280D-01  0.132073D+02
     10 -0.516128D-01  0.271876D+00 -0.552850D-01 -0.586312D-02  0.862873D+01
     11 -0.357478D-01 -0.169066D-01 -0.138900D+00  0.184265D-02  0.159068D+01
     12 -0.186899D+00 -0.146713D-01  0.109750D-02 -0.158043D+00  0.290263D-01
     13 -0.115967D-01 -0.131742D+01 -0.194441D+01  0.315851D+00  0.407928D+00
     14  0.205969D+00 -0.196160D+01 -0.497082D+01 -0.126484D+00  0.242594D+00
[...]
 ! A13   A(10,3,11)            107.492          -DE/DX =    0.0                 !
 ! A14   A(1,4,12)             110.7844         -DE/DX =    0.0                 !
 ! A15   A(1,4,13)             106.7199         -DE/DX =    0.0                 !
 ! A16   A(1,4,14)             111.6419         -DE/DX =    0.0                 !
 ! A17   A(12,4,13)            109.3855         -DE/DX =    0.0                 !
 ! A18   A(12,4,14)            109.1918         -DE/DX =    0.0                 !
 ! A19   A(13,4,14)            109.0577         -DE/DX =    0.0                 !
 ! A20   A(1,5,2)              118.519          -DE/DX =    0.0                 !
 ! A21   A(1,5,3)              111.3298         -DE/DX =    0.0                 !
 ! A22   A(2,5,3)              119.6379         -DE/DX =    0.0                 !
 ! D1    D(5,1,4,12)            53.0238         -DE/DX =    0.0                 !
 ! D2    D(5,1,4,13)           172.0176         -DE/DX =    0.0                 !
 ! D3    D(5,1,4,14)           -68.9058         -DE/DX =    0.0                 !
 ! D4    D(4,1,5,2)             39.0141         -DE/DX =    0.0                 !
 ! D5    D(4,1,5,3)           -176.2622         -DE/DX =    0.0                 !
 ! D6    D(6,2,5,1)           -178.7729         -DE/DX =    0.0                 !
 ! D7    D(6,2,5,3)             39.4657         -DE/DX =    0.0                 !
 ! D8    D(7,2,5,1)            -58.6203         -DE/DX =    0.0                 !
 ! D9    D(7,2,5,3)            159.6183         -DE/DX =    0.0                 !
 ! D10   D(8,2,5,1)             62.3607         -DE/DX =    0.0                 !
 ! D11   D(8,2,5,3)            -79.4007         -DE/DX =    0.0                 !
 ! D12   D(9,3,5,1)            166.5198         -DE/DX =    0.0                 !
 ! D13   D(9,3,5,2)            -49.2003         -DE/DX =    0.0                 !
 ! D14   D(10,3,5,1)           -73.6349         -DE/DX =    0.0                 !
 ! D15   D(10,3,5,2)            70.645          -DE/DX =    0.0                 !
 ! D16   D(11,3,5,1)            45.7774         -DE/DX =    0.0                 !
 ! D17   D(11,3,5,2)          -169.9427         -DE/DX =    0.0                 !
 --------------------------------------------------------------------------------
 GradGradGradGradGradGradGradGradGradGradGradGradGradGradGradGradGradGrad

 Leave Link  103 at Sat Mar  9 02:21:41 2019, MaxMem=   671088640 cpu:               0.6 elap:               0.1
 (Enter /shared/centos7/gaussian/g16/l9999.exe)

 ----------------------------------------------------------------------

 Electric dipole moment (input orientation):
 (Debye = 10**-18 statcoulomb cm , SI units = C m)
                  (au)            (Debye)         (10**-30 SI)
   Tot        0.475485D+00      0.120856D+01      0.403133D+01
   x          0.119049D+00      0.302592D+00      0.100934D+01
   y          0.446606D+00      0.113516D+01      0.378649D+01
   z          0.111609D+00      0.283681D+00      0.946258D+00

 Dipole polarizability, Alpha (input orientation).
 (esu units = cm**3 , SI units = C**2 m**2 J**-1)
 Alpha(0;0):
               (au)            (10**-24 esu)      (10**-40 SI)
   iso        0.555839D+02      0.823669D+01      0.916455D+01
   aniso      0.130356D+02      0.193167D+01      0.214927D+01
   xx         0.629742D+02      0.933182D+01      0.103830D+02
   yx         0.204230D+01      0.302637D+00      0.336729D+00
   yy         0.548352D+02      0.812573D+01      0.904110D+01
   zx        -0.832955D+00     -0.123431D+00     -0.137336D+00
   zy         0.146074D+01      0.216460D+00      0.240844D+00
   zz         0.489424D+02      0.725252D+01      0.806951D+01

 ----------------------------------------------------------------------

 Dipole orientation:
     8          1.87428439          0.21435722         -1.09250369
     6         -1.57646223          0.13051767          2.02021084
     6         -2.23916866          0.11366038         -2.80429660
     6          3.66206016         -0.29799739          0.81498681
     6         -0.59066806         -0.36360732         -0.57783283
     1         -3.54131072         -0.46538388          2.13329013
     1         -0.52722702         -0.87445073          3.48017450
     1         -1.50684693          2.15508349          2.48571057
     1         -4.08517127         -0.75655294         -2.54270857
     1         -2.53617550          2.14611468         -3.10612220
     1         -1.37913365         -0.64624006         -4.51266785
     1          3.51864907         -2.25952483          1.44621981
     1          5.51462950          0.01820160         -0.01146663
     1          3.42492302          0.95560539          2.43685542

 Electric dipole moment (dipole orientation):
 (Debye = 10**-18 statcoulomb cm , SI units = C m)
                  (au)            (Debye)         (10**-30 SI)
   Tot        0.475485D+00      0.120856D+01      0.403133D+01
   x          0.000000D+00      0.000000D+00      0.000000D+00
   y          0.000000D+00      0.000000D+00      0.000000D+00
   z          0.475485D+00      0.120856D+01      0.403133D+01

 Dipole polarizability, Alpha (dipole orientation).
 (esu units = cm**3 , SI units = C**2 m**2 J**-1)
 Alpha(0;0):
               (au)            (10**-24 esu)      (10**-40 SI)
   iso        0.555839D+02      0.823669D+01      0.916455D+01
   aniso      0.130356D+02      0.193167D+01      0.214927D+01
   xx         0.615962D+02      0.912761D+01      0.101558D+02
   yx        -0.136987D+01     -0.202994D+00     -0.225862D+00
   yy         0.486282D+02      0.720595D+01      0.801771D+01
   zx         0.346193D+01      0.513006D+00      0.570796D+00
   zy        -0.265994D+00     -0.394163D-01     -0.438566D-01
   zz         0.565275D+02      0.837651D+01      0.932012D+01

 ----------------------------------------------------------------------

 Test job not archived.
 1\1\GINC-C0274\Freq\UM062X\6-311+G(2df,2p)\C4H9O1(2)\UNDERKOFFLER.C\09
 -Mar-2019\0\\#P Geom=AllCheck Guess=TCheck SCRF=Check Test GenChk UM06
 2X/6-311+G(2df,2p) Freq\\Gaussian input prepared by ASE\\0,2\O,0.77512
 1429,-0.6995345412,-0.4905723457\C,-0.537367541,1.1827256709,0.3949296
 556\C,-1.5077608575,-1.1509881371,-0.108147997\C,1.9775065764,-0.00903
 14773,-0.2358463253\C,-0.3366101453,-0.2826054765,0.1872115096\H,-1.44
 92911479,1.3469347483,0.9654868995\H,0.2843961736,1.6508038511,0.93676
 55943\H,-0.6447748008,1.7129468213,-0.562757809\H,-2.3126635162,-0.966
 3852663,0.601452788\H,-1.9017858117,-0.9640135382,-1.1164925731\H,-1.2
 255125761,-2.2015968544,-0.0565962309\H,2.1867999932,0.022825676,0.836
 5129262\H,2.7667054038,-0.5587545245,-0.74111424\H,1.9469269027,1.0103
 893997,-0.6260599726\\Version=EM64L-G16RevA.03\State=2-A\HF=-232.96742
 11\S2=0.754228\S2-1=0.\S2A=0.750014\RMSD=3.638e-09\RMSF=7.939e-07\Zero
 Point=0.1236544\Thermal=0.1305606\Dipole=0.1190487,0.4466062,0.1116086
 \DipoleDeriv=-1.4197108,-0.0647561,0.178602,-0.0477926,-0.5516767,-0.1
 169413,0.4252752,-0.1381979,-0.4656459,-0.0361635,-0.0378986,0.0350019
 ,0.018392,-0.0634135,-0.1493074,0.0676965,-0.0243596,0.1267064,-0.0335
 906,-0.0307905,0.083377,-0.022007,-0.021393,-0.004786,-0.0222333,-0.08
 07716,0.158823,0.771529,0.1112264,0.0174431,0.2819415,0.3601325,-0.012
 1536,0.1221045,0.0024408,0.3133524,0.8488955,-0.0039604,-0.3552408,-0.
 1783039,0.355684,0.2115219,-0.4439802,0.1705909,0.0320955,-0.0593838,0
 .0429909,0.0796466,0.008681,0.074567,0.0086094,0.0792945,-0.0127025,0.
 0308696,-0.0326903,-0.0802239,-0.0753066,-0.05037,-0.0094856,-0.017663
 8,-0.0717437,-0.0314142,0.0307133,0.0666852,0.0183761,-0.0087538,0.021
 9686,-0.0707133,0.0365339,-0.030148,0.1316043,-0.0995973,-0.0449353,0.
 0018263,0.0600258,0.0267494,0.0597596,-0.0417763,0.0976536,-0.0226889,
 -0.0106214,-0.0251277,-0.0434845,-0.0512412,-0.0111298,0.0286463,0.060
 48,-0.1331563,-0.0103714,-0.1245357,0.0467188,0.0467436,-0.0123061,0.0
 024013,-0.1047233,-0.002191,-0.0135282,0.0076856,0.0717273,-0.0027378,
 -0.0206948,0.0279674,-0.0541499,0.0417017,0.0192382,-0.12421,-0.015009
 9,-0.1319947,-0.0682243,0.0242103,0.0449045,0.0841903,0.0199382,-0.054
 1927,0.0794158,-0.0445542,0.0421969,-0.0112642,0.0364352,-0.0241198,-0
 .0805711,-0.119024,0.0626289,-0.0324403,0.0677485,0.0259105\Polar=62.9
 742249,2.0422952,54.8351753,-0.8329547,1.4607416,48.9424115\Quadrupole
 =2.1451517,-0.736515,-1.4086366,0.630286,-0.1386202,-0.1234573\PG=C01 
 [X(C4H9O1)]\NImag=0\\0.54958945,0.05741474,0.24290621,-0.09239204,0.11
 419746,0.17679682,-0.01470812,0.03462913,0.00897451,0.58284044,0.00812
 003,-0.00789275,0.00057127,0.02302420,0.47522532,0.00914368,-0.0249026
 9,0.00088179,-0.01729834,0.02331112,0.52447648,-0.04255575,-0.01798491
 ,-0.00356704,0.00683822,0.00261399,-0.00146468,0.53491798,0.01007987,0
 .00835582,-0.00015103,-0.02534502,-0.01848906,-0.01346718,-0.03644097,
 0.55557774,0.02328363,0.01247653,0.00541400,-0.00171265,0.00258613,0.0
 0291269,-0.04438709,0.00545653,0.51667712,-0.19600033,-0.06271547,-0.0
 1577602,0.00142348,0.00184697,0.00124268,-0.00112751,0.00147714,0.0028
 2477,0.53328238,-0.08453848,-0.12533521,-0.02795736,0.00494988,0.00168
 113,0.00040074,0.00215964,-0.00049309,-0.00183943,-0.05421926,0.568052
 64,-0.03637487,-0.03509117,-0.07914243,0.00194350,-0.00108614,-0.00190
 341,0.00240315,-0.00205280,-0.00014133,-0.03602627,0.00543538,0.583627
 33,-0.22350115,0.02949548,0.10624811,-0.08452258,0.00248223,0.00691459
 ,-0.16511139,-0.07350432,-0.03126502,-0.04841884,0.00457997,0.01873014
 ,0.53592634,0.05561493,-0.10540911,-0.07343847,0.00759061,-0.21422064,
 -0.01058740,-0.07259868,-0.13586237,-0.03783252,-0.01213877,0.00647304
 ,0.01343435,0.04620165,0.50992807,0.11786421,-0.05574854,-0.11818697,0
 .00769983,-0.03668622,-0.06399770,-0.01231855,-0.02029054,-0.06761626,
 -0.00091615,0.00408790,0.00140211,-0.09157111,0.11844362,0.25071054,0.
 00113786,0.00021228,0.00008428,-0.23990113,0.03381061,0.12170153,0.000
 11405,-0.00103977,-0.00015942,-0.00002712,-0.00006358,0.00039279,-0.00
 549130,0.00044552,0.00142413,0.25880358,0.00304156,-0.00801971,-0.0020
 6192,0.03104533,-0.05115923,-0.02053999,0.00006094,0.00082432,-0.00032
 610,-0.00241702,-0.00126611,0.00011630,0.02919981,-0.00189776,-0.01588
 878,-0.03631404,0.05754793,0.00027126,-0.00125923,0.00136290,0.1217680
 5,-0.02255207,-0.12095467,0.00009682,0.00061450,-0.00011132,-0.0009115
 9,-0.00010178,0.00001559,0.00284811,0.00092097,-0.00367189,-0.13322904
 ,0.02315847,0.12829156,-0.00009054,-0.00083813,-0.00050490,-0.20051960
 ,-0.08314444,-0.10140145,0.00034723,0.00076453,-0.00019216,-0.00184300
 ,0.00062935,0.00170639,0.00608584,-0.00101684,0.00429508,-0.01899450,-
 0.01060787,-0.01415741,0.21852115,0.00114759,0.00135441,0.00035325,-0.
 08451761,-0.09065493,-0.05819333,0.00253581,-0.00494137,-0.00142813,-0
 .00029714,0.00000311,-0.00112094,-0.02780905,-0.01550089,-0.01172233,0
 .00385087,0.00141780,0.00366458,0.09306216,0.10252967,0.00075656,-0.00
 002855,-0.00015448,-0.10158318,-0.05745866,-0.11152824,0.00079590,0.00
 022637,0.00023507,-0.00091525,-0.00095001,0.00018237,-0.00116478,-0.00
 082910,-0.00113361,0.01277958,0.00842471,0.00943642,0.11145640,0.06113
 595,0.11848716,-0.00007779,-0.00091904,0.00098468,-0.04783162,0.010589
 40,-0.02085720,-0.00016499,-0.00001260,0.00034254,0.00028969,0.0005149
 8,-0.00083883,0.00049475,0.00384420,-0.00428565,0.00353776,-0.01339957
 ,0.02383133,-0.00256827,0.01178621,-0.02255368,0.04636956,0.00142297,0
 .00321315,-0.00536511,0.01082407,-0.09492866,0.10341091,0.00143857,0.0
 0205389,-0.00073320,-0.00061070,-0.00076446,0.00000964,0.00143324,-0.0
 2603144,0.03206052,-0.00108566,0.00188043,-0.00441128,-0.00073944,0.00
 643707,-0.01146090,-0.01213509,0.10861775,-0.00273055,0.00102988,0.001
 82496,-0.01900859,0.09254015,-0.23153528,0.00004058,0.00035001,0.00057
 933,0.00061990,0.00086677,-0.00028068,0.00115861,0.00312765,0.00589714
 ,-0.00233303,0.00701924,-0.01471616,-0.00105644,0.00711276,-0.01533964
 ,0.02316542,-0.11223838,0.25360154,-0.00579601,-0.00473038,-0.00046795
 ,0.00040125,0.00073984,0.00004651,-0.19179771,0.03311985,0.13177231,0.
 00020965,0.00065555,0.00099974,-0.01801912,0.00891511,0.01528522,0.000
 56232,-0.00061913,-0.00023037,0.00031174,0.00019901,-0.00020773,0.0001
 5530,0.00003829,0.00002769,0.21109644,-0.00404201,-0.00198792,-0.00038
 975,0.00020235,0.00011093,0.00047323,0.03491231,-0.05703314,-0.0320617
 4,-0.00058772,0.00084570,0.00019771,-0.01107448,0.00461474,0.01308317,
 -0.00023247,-0.00067019,-0.00024150,0.00009784,0.00024740,0.00006463,-
 0.00000341,-0.00003525,-0.00010170,-0.03610243,0.05640640,-0.00216530,
 -0.00074680,0.00064856,0.00010356,-0.00022807,-0.00018753,0.13394509,-
 0.03116222,-0.16181340,-0.00063050,-0.00013231,0.00042632,-0.00618893,
 0.00195631,0.00390316,-0.00015070,0.00002443,0.00034129,-0.00022507,0.
 00013760,0.00015954,0.00007639,-0.00000326,-0.00014342,-0.14345058,0.0
 3558569,0.17480463,0.00048482,0.00040466,0.00279035,0.00063446,0.00144
 271,0.00168445,-0.07313592,0.01861786,-0.08004287,0.00039834,-0.000019
 57,0.00054712,-0.01452468,-0.00098155,-0.02881172,0.00000763,-0.000176
 16,0.00004595,-0.00012484,-0.00012336,0.00019311,0.00021729,-0.0012705
 4,0.00044339,0.00913702,-0.00481756,0.02203905,0.08022380,0.00048515,0
 .00025110,0.00160619,0.00073262,0.00163036,0.00107565,0.01437800,-0.05
 321700,0.03876337,0.00028070,0.00005164,0.00024372,-0.00931515,0.00196
 779,-0.02180622,0.00003142,-0.00004871,-0.00011083,0.00005248,-0.00003
 031,0.00027358,0.00014019,-0.00049688,0.00062193,-0.00234382,0.0002881
 9,-0.00544778,-0.01481838,0.05492138,-0.00202960,0.00069836,0.00244445
 ,0.00018383,0.00008465,0.00159680,-0.07333902,0.04553813,-0.25130512,0
 .00050910,0.00038661,0.00020612,-0.00737801,-0.00561499,-0.00842223,-0
 .00001351,-0.00001326,-0.00022362,-0.00010867,-0.00022901,0.00010016,0
 .00000125,-0.00118507,-0.00021433,-0.00732102,0.00453264,-0.01947324,0
 .08956786,-0.04484731,0.27738253,0.00151309,0.00100137,0.00007701,-0.0
 0398858,-0.00212485,-0.00057810,-0.06654636,0.07132847,-0.00159605,0.0
 0005112,-0.00004649,-0.00024689,0.00766330,-0.02684601,0.00005590,0.00
 012281,0.00009131,-0.00018376,0.00015917,-0.00111812,-0.00013941,0.000
 02625,-0.00012872,0.00003548,-0.00558795,0.02193886,-0.00333210,-0.003
 31340,0.01032581,-0.00007337,0.06970067,0.00113405,0.00184894,0.000607
 83,-0.00349400,-0.00086078,-0.00020162,0.06991986,-0.29739268,0.014295
 91,-0.00023140,0.00034751,-0.00016416,0.00451555,-0.02025449,-0.002422
 61,-0.00006559,0.00043290,0.00013244,0.00014492,-0.00087194,0.00006151
 ,0.00003588,-0.00014044,0.00018212,0.00056529,-0.00263178,0.00002844,0
 .00178054,-0.00528780,0.00076166,-0.07456967,0.32463967,0.00074035,0.0
 0078835,-0.00037674,-0.00098022,-0.00117030,0.00035249,-0.00209153,0.0
 1466386,-0.04508387,-0.00001321,0.00001722,-0.00008444,0.00176655,-0.0
 0890432,-0.00156766,-0.00037003,0.00022529,0.00013620,-0.00017598,-0.0
 0043868,0.00024227,-0.00021512,-0.00050958,0.00003043,0.00373714,-0.02
 104932,0.00136769,-0.00842418,0.02967252,-0.00190697,0.00600961,-0.013
 26286,0.04690431,-0.02222903,-0.00876666,-0.03266462,-0.00049568,0.000
 32170,0.00001141,-0.00037538,-0.00013355,0.00042069,-0.05571521,0.0023
 6761,-0.03358362,0.00589211,-0.00167595,-0.00384455,0.00008005,0.00011
 351,0.00009784,-0.00042152,0.00067625,-0.00010615,0.00003439,0.0000028
 0,-0.00008531,-0.00008610,-0.00007726,0.00009532,0.00020498,0.00011009
 ,0.00013698,0.00002850,0.00007477,-0.00003078,0.06577723,-0.01255074,-
 0.00202440,-0.02025191,-0.00000051,0.00011158,0.00076505,-0.00005938,-
 0.00009681,0.00018488,0.00165344,-0.05185193,0.00125875,0.00272452,-0.
 00023835,-0.00042577,-0.00016063,0.00002138,-0.00016698,0.00011760,-0.
 00037124,-0.00005357,-0.00002054,0.00005477,-0.00017926,-0.00002941,-0
 .00000806,0.00004049,0.00007453,0.00002337,-0.00001049,-0.00001687,-0.
 00001742,-0.00005855,0.00641189,0.05177395,-0.00949166,-0.00601800,-0.
 00189000,-0.00015573,-0.00023452,-0.00070293,-0.00009189,0.00043446,-0
 .00007202,-0.03978692,-0.00119724,-0.30086052,0.00093751,-0.00088454,0
 .00165913,0.00015290,0.00008719,0.00019386,0.00005691,0.00056945,0.000
 35954,0.00011776,0.00030014,0.00015171,-0.00012404,-0.00006176,0.00001
 339,-0.00006511,-0.00010091,-0.00015996,0.00000479,0.00000278,0.000004
 60,0.05031858,0.00613185,0.32448091,-0.03634492,0.01039674,0.01545105,
 0.00004170,-0.00062183,-0.00025352,-0.00096330,0.00067753,0.00087581,-
 0.18086292,0.09968668,0.08827665,-0.00092031,-0.00358694,-0.00334816,0
 .00006880,0.00016065,0.00009496,0.00024460,0.00011835,0.00009773,-0.00
 001756,0.00010639,-0.00006248,-0.00036040,-0.00029954,-0.00011973,-0.0
 0007794,-0.00000018,-0.00009769,0.00004632,-0.00003213,0.00001171,0.00
 619224,-0.00307026,-0.00172596,0.21249908,-0.02133887,0.01002936,0.010
 29085,-0.00002657,-0.00042488,-0.00075151,-0.00063224,0.00041409,0.000
 40607,0.11041263,-0.12816309,-0.07073328,-0.00242013,-0.00179502,-0.00
 106249,0.00027913,0.00031332,0.00015256,0.00052376,0.00021294,0.000494
 77,-0.00021314,0.00006373,-0.00008847,-0.00020040,-0.00015075,-0.00004
 095,-0.00000997,-0.00001169,-0.00000973,0.00005034,0.00001587,0.000015
 86,-0.00103750,0.00077015,0.00132435,-0.10577664,0.13251248,-0.0075930
 4,0.00425103,0.00493173,-0.00018345,-0.00010991,0.00004873,-0.00016133
 ,-0.00005295,0.00040794,0.09600095,-0.06874267,-0.11470559,-0.00073657
 ,-0.00046189,0.00022254,0.00006165,-0.00001957,0.00009075,-0.00003661,
 0.00034202,0.00000060,0.00020766,-0.00000489,0.00005181,-0.00007567,-0
 .00009575,-0.00003039,0.00008062,0.00007542,0.00001369,-0.00000005,0.0
 0001546,0.00000794,0.02211440,-0.01717802,-0.01250330,-0.09987881,0.07
 502781,0.11462034,-0.01142157,-0.03759980,0.01076258,-0.00021225,0.000
 89944,0.00110845,-0.00043914,0.00041096,-0.00016448,-0.05165972,0.0233
 4371,-0.00792902,0.00444705,-0.00376727,-0.00152849,-0.00002082,-0.000
 17931,-0.00034214,-0.00110745,0.00048903,0.00059091,-0.00046477,0.0007
 0382,-0.00021469,-0.00022641,0.00008553,0.00000349,-0.00013154,-0.0000
 5893,-0.00003813,0.00012506,0.00022193,0.00003569,0.00111341,0.0049263
 7,-0.00014713,0.00045461,0.02038960,-0.00979976,0.05954352,-0.01599079
 ,-0.01728988,0.00198871,0.00038552,-0.00012838,-0.00079297,-0.00030296
 ,0.00029966,0.00005169,0.01754660,-0.26958087,0.08955265,0.00349068,-0
 .00177357,-0.00162171,0.00033192,0.00062364,0.00020015,0.00095409,0.00
 016827,0.00009927,-0.00020747,0.00007632,-0.00024271,-0.00020739,0.000
 00374,-0.00001156,-0.00010322,-0.00004145,-0.00009221,0.00011456,0.000
 17246,0.00001052,0.00161231,0.00185300,-0.00035326,0.00224120,-0.01378
 651,0.00695389,-0.00986506,0.29940359,0.00071739,-0.00964664,0.0054454
 0,0.00024889,0.00043257,0.00054078,0.00013960,-0.00010714,-0.00008282,
 -0.00622149,0.08972619,-0.08874143,-0.00029919,0.00067033,0.00080171,-
 0.00034114,-0.00020601,-0.00019091,0.00034390,-0.00018320,-0.00104716,
 0.00002346,0.00013047,0.00009260,0.00000873,0.00006443,-0.00001661,-0.
 00004801,-0.00001932,-0.00003829,-0.00003307,-0.00003692,-0.00002627,-
 0.00288022,0.02994353,-0.01067442,0.00067844,-0.01502583,0.00684323,0.
 00766272,-0.09574247,0.08709419\\0.00000005,-0.00000063,0.00000090,0.0
 0000010,0.00000047,-0.00000132,-0.00000012,0.00000018,0.00000060,0.000
 00020,-0.00000053,0.00000073,-0.00000032,0.00000027,0.00000025,-0.0000
 0006,0.00000118,-0.00000181,-0.00000004,0.00000084,-0.00000147,0.00000
 052,-0.00000041,-0.00000185,-0.00000038,0.00000100,0.00000011,0.000000
 21,-0.00000072,0.00000025,-0.00000039,0.00000016,0.00000168,-0.0000003
 0,0.00000038,0.00000073,0.00000015,-0.00000123,0.00000148,0.00000038,-
 0.00000096,-0.00000029\\\@


 FAULTILY FAULTLESS, ICILY REGULAR, SPLENDIDLY NULL...
           MAUDE BY TENNYSON
 Job cpu time:       0 days  3 hours 31 minutes 23.3 seconds.
 Elapsed time:       0 days  0 hours 10 minutes 34.8 seconds.
 File lengths (MBytes):  RWF=   1376 Int=      0 D2E=      0 Chk=     32 Scr=     32
 Normal termination of Gaussian 16 at Sat Mar  9 02:21:42 2019.
