 Entering Gaussian System, Link 0=g16
 Input=NPQBOSHSVUVOHJ-UHFFFAOYSA-N_GeoFreq_a2.com
 Output=NPQBOSHSVUVOHJ-UHFFFAOYSA-N_GeoFreq_a2.log
 Initial command:
 /shared/centos7/gaussian/g16/l1.exe "/scratch/underkoffler.c/gaussian_scratch/Gau-42861.inp" -scrdir="/scratch/underkoffler.c/gaussian_scratch/"
 Entering Link 1 = /shared/centos7/gaussian/g16/l1.exe PID=     42862.
  
 Copyright (c) 1988,1990,1992,1993,1995,1998,2003,2009,2016,
            Gaussian, Inc.  All Rights Reserved.
  
 This is part of the Gaussian(R) 16 program.  It is based on
 the Gaussian(R) 09 system (copyright 2009, Gaussian, Inc.),
 the Gaussian(R) 03 system (copyright 2003, Gaussian, Inc.),
 the Gaussian(R) 98 system (copyright 1998, Gaussian, Inc.),
 the Gaussian(R) 94 system (copyright 1995, Gaussian, Inc.),
 the Gaussian 92(TM) system (copyright 1992, Gaussian, Inc.),
 the Gaussian 90(TM) system (copyright 1990, Gaussian, Inc.),
 the Gaussian 88(TM) system (copyright 1988, Gaussian, Inc.),
 the Gaussian 86(TM) system (copyright 1986, Carnegie Mellon
 University), and the Gaussian 82(TM) system (copyright 1983,
 Carnegie Mellon University). Gaussian is a federally registered
 trademark of Gaussian, Inc.
  
 This software contains proprietary and confidential information,
 including trade secrets, belonging to Gaussian, Inc.
  
 This software is provided under written license and may be
 used, copied, transmitted, or stored only in accord with that
 written license.
  
 The following legend is applicable only to US Government
 contracts under FAR:
  
                    RESTRICTED RIGHTS LEGEND
  
 Use, reproduction and disclosure by the US Government is
 subject to restrictions as set forth in subparagraphs (a)
 and (c) of the Commercial Computer Software - Restricted
 Rights clause in FAR 52.227-19.
  
 Gaussian, Inc.
 340 Quinnipiac St., Bldg. 40, Wallingford CT 06492
  
  
 ---------------------------------------------------------------
 Warning -- This program may not be used in any manner that
 competes with the business of Gaussian, Inc. or will provide
 assistance to any competitor of Gaussian, Inc.  The licensee
 of this program is prohibited from giving any competitor of
 Gaussian, Inc. access to this program.  By using this program,
 the user acknowledges that Gaussian, Inc. is engaged in the
 business of creating and licensing software in the field of
 computational chemistry and represents and warrants to the
 licensee that it is not a competitor of Gaussian, Inc. and that
 it will not use this program in any manner prohibited above.
 ---------------------------------------------------------------
  

 Cite this work as:
 Gaussian 16, Revision A.03,
 M. J. Frisch, G. W. Trucks, H. B. Schlegel, G. E. Scuseria, 
 M. A. Robb, J. R. Cheeseman, G. Scalmani, V. Barone, 
 G. A. Petersson, H. Nakatsuji, X. Li, M. Caricato, A. V. Marenich, 
 J. Bloino, B. G. Janesko, R. Gomperts, B. Mennucci, H. P. Hratchian, 
 J. V. Ortiz, A. F. Izmaylov, J. L. Sonnenberg, D. Williams-Young, 
 F. Ding, F. Lipparini, F. Egidi, J. Goings, B. Peng, A. Petrone, 
 T. Henderson, D. Ranasinghe, V. G. Zakrzewski, J. Gao, N. Rega, 
 G. Zheng, W. Liang, M. Hada, M. Ehara, K. Toyota, R. Fukuda, 
 J. Hasegawa, M. Ishida, T. Nakajima, Y. Honda, O. Kitao, H. Nakai, 
 T. Vreven, K. Throssell, J. A. Montgomery, Jr., J. E. Peralta, 
 F. Ogliaro, M. J. Bearpark, J. J. Heyd, E. N. Brothers, K. N. Kudin, 
 V. N. Staroverov, T. A. Keith, R. Kobayashi, J. Normand, 
 K. Raghavachari, A. P. Rendell, J. C. Burant, S. S. Iyengar, 
 J. Tomasi, M. Cossi, J. M. Millam, M. Klene, C. Adamo, R. Cammi, 
 J. W. Ochterski, R. L. Martin, K. Morokuma, O. Farkas, 
 J. B. Foresman, and D. J. Fox, Gaussian, Inc., Wallingford CT, 2016.
 
 ******************************************
 Gaussian 16:  EM64L-G16RevA.03 25-Dec-2016
                13-Mar-2019 
 ******************************************
 %nprocshared=20
 Will use up to   20 processors via shared memory.
 %mem=5GB
 ----------------------------------------------------------------------
 #p m062x/6-311+g(2df,2p) opt=(calcfc,verytight,gdiis,maxcycles=900) fr
 eq iop(7/33=1,2/16=3)
 ----------------------------------------------------------------------

 Warning!  Use of Opt=GDIIS is deprecated since it is seldom a good choice.

 1/6=900,7=1,10=4,18=20,19=11,26=3,38=1/1,3;
 2/9=110,12=2,16=3,17=6,18=5,40=1/2;
 3/5=4,6=6,7=214,11=2,25=1,30=1,71=2,74=-55,140=1/1,2,3;
 4//1;
 5/5=2,38=5/2;
 8/6=4,10=90,11=11/1;
 11/6=1,8=1,9=11,15=111,16=1/1,2,10;
 10/6=1,13=1/2;
 6/7=2,8=2,9=2,10=2,28=1/1;
 7/10=1,18=20,25=1,33=1/1,2,3,16;
 1/6=900,7=1,10=4,18=20,19=11,26=3/3(2);
 2/9=110,16=3/2;
 99//99;
 2/9=110,16=3/2;
 3/5=4,6=6,7=214,11=2,25=1,30=1,71=1,74=-55/1,2,3;
 4/5=5,16=3,69=1/1;
 5/5=2,38=5/2;
 7/33=1/1,2,3,16;
 1/6=900,7=1,18=20,19=11,26=3/3(-5);
 2/9=110,16=3/2;
 6/7=2,8=2,9=2,10=2,19=2,28=1/1;
 99/9=1/99;
 Leave Link    1 at Wed Mar 13 04:22:41 2019, MaxMem=   671088640 cpu:              26.2 elap:               1.4
 (Enter /shared/centos7/gaussian/g16/l101.exe)
 ------------------------------
 Gaussian input prepared by ASE
 ------------------------------
 Symbolic Z-matrix:
 Charge =  0 Multiplicity = 2
 O                     1.07259  -0.70253   0.0039 
 O                     0.06598   1.29352  -0.00697 
 C                    -1.27649  -0.71452  -0.01029 
 C                     2.33068  -0.03164   0.00521 
 C                    -0.00323   0.09689  -0.00331 
 C                    -2.49949   0.11949   0.01296 
 H                    -1.23593  -1.36657  -0.89115 
 H                    -1.22718  -1.40489   0.83946 
 H                     2.42272   0.59736   0.88834 
 H                     2.42843   0.5902   -0.8824 
 H                     3.0847   -0.81133   0.01082 
 H                    -3.47041  -0.34789   0.02225 
 H                    -2.41972   1.19389   0.00987 
 
 ITRead=  0  0  0  0  0  0  0  0  0  0  0  0  0
 MicOpt= -1 -1 -1 -1 -1 -1 -1 -1 -1 -1 -1 -1 -1
 NAtoms=     13 NQM=       13 NQMF=       0 NMMI=      0 NMMIF=      0
                NMic=       0 NMicF=      0.
                    Isotopes and Nuclear Properties:
 (Nuclear quadrupole moments (NQMom) in fm**2, nuclear magnetic moments (NMagM)
  in nuclear magnetons)

  Atom         1           2           3           4           5           6           7           8           9          10
 IAtWgt=          16          16          12          12          12          12           1           1           1           1
 AtmWgt=  15.9949146  15.9949146  12.0000000  12.0000000  12.0000000  12.0000000   1.0078250   1.0078250   1.0078250   1.0078250
 NucSpn=           0           0           0           0           0           0           1           1           1           1
 AtZEff=  -0.0000000  -0.0000000  -0.0000000  -0.0000000  -0.0000000  -0.0000000  -0.0000000  -0.0000000  -0.0000000  -0.0000000
 NQMom=    0.0000000   0.0000000   0.0000000   0.0000000   0.0000000   0.0000000   0.0000000   0.0000000   0.0000000   0.0000000
 NMagM=    0.0000000   0.0000000   0.0000000   0.0000000   0.0000000   0.0000000   2.7928460   2.7928460   2.7928460   2.7928460
 AtZNuc=   8.0000000   8.0000000   6.0000000   6.0000000   6.0000000   6.0000000   1.0000000   1.0000000   1.0000000   1.0000000

  Atom        11          12          13
 IAtWgt=           1           1           1
 AtmWgt=   1.0078250   1.0078250   1.0078250
 NucSpn=           1           1           1
 AtZEff=  -0.0000000  -0.0000000  -0.0000000
 NQMom=    0.0000000   0.0000000   0.0000000
 NMagM=    2.7928460   2.7928460   2.7928460
 AtZNuc=   1.0000000   1.0000000   1.0000000
 Leave Link  101 at Wed Mar 13 04:22:42 2019, MaxMem=   671088640 cpu:               4.9 elap:               0.3
 (Enter /shared/centos7/gaussian/g16/l103.exe)

 GradGradGradGradGradGradGradGradGradGradGradGradGradGradGradGradGradGrad
 Berny optimization.
 Initialization pass.
                           ----------------------------
                           !    Initial Parameters    !
                           ! (Angstroms and Degrees)  !
 --------------------------                            --------------------------
 ! Name  Definition              Value          Derivative Info.                !
 --------------------------------------------------------------------------------
 ! R1    R(1,4)                  1.4258         calculate D2E/DX2 analytically  !
 ! R2    R(1,5)                  1.3403         calculate D2E/DX2 analytically  !
 ! R3    R(2,5)                  1.1986         calculate D2E/DX2 analytically  !
 ! R4    R(3,5)                  1.5098         calculate D2E/DX2 analytically  !
 ! R5    R(3,6)                  1.4805         calculate D2E/DX2 analytically  !
 ! R6    R(3,7)                  1.0967         calculate D2E/DX2 analytically  !
 ! R7    R(3,8)                  1.096          calculate D2E/DX2 analytically  !
 ! R8    R(4,9)                  1.0881         calculate D2E/DX2 analytically  !
 ! R9    R(4,10)                 1.0882         calculate D2E/DX2 analytically  !
 ! R10   R(4,11)                 1.0847         calculate D2E/DX2 analytically  !
 ! R11   R(6,12)                 1.0776         calculate D2E/DX2 analytically  !
 ! R12   R(6,13)                 1.0774         calculate D2E/DX2 analytically  !
 ! A1    A(4,1,5)              115.3157         calculate D2E/DX2 analytically  !
 ! A2    A(5,3,6)              113.1927         calculate D2E/DX2 analytically  !
 ! A3    A(5,3,7)              106.9808         calculate D2E/DX2 analytically  !
 ! A4    A(5,3,8)              107.2781         calculate D2E/DX2 analytically  !
 ! A5    A(6,3,7)              112.2161         calculate D2E/DX2 analytically  !
 ! A6    A(6,3,8)              112.3245         calculate D2E/DX2 analytically  !
 ! A7    A(7,3,8)              104.2738         calculate D2E/DX2 analytically  !
 ! A8    A(1,4,9)              110.327          calculate D2E/DX2 analytically  !
 ! A9    A(1,4,10)             110.329          calculate D2E/DX2 analytically  !
 ! A10   A(1,4,11)             105.9721         calculate D2E/DX2 analytically  !
 ! A11   A(9,4,10)             108.9105         calculate D2E/DX2 analytically  !
 ! A12   A(9,4,11)             110.6414         calculate D2E/DX2 analytically  !
 ! A13   A(10,4,11)            110.6438         calculate D2E/DX2 analytically  !
 ! A14   A(1,5,2)              123.3049         calculate D2E/DX2 analytically  !
 ! A15   A(1,5,3)              110.878          calculate D2E/DX2 analytically  !
 ! A16   A(2,5,3)              125.8168         calculate D2E/DX2 analytically  !
 ! A17   A(3,6,12)             120.0069         calculate D2E/DX2 analytically  !
 ! A18   A(3,6,13)             120.038          calculate D2E/DX2 analytically  !
 ! A19   A(12,6,13)            119.9518         calculate D2E/DX2 analytically  !
 ! D1    D(5,1,4,9)             60.2176         calculate D2E/DX2 analytically  !
 ! D2    D(5,1,4,10)           -60.1679         calculate D2E/DX2 analytically  !
 ! D3    D(5,1,4,11)          -179.9771         calculate D2E/DX2 analytically  !
 ! D4    D(4,1,5,2)             -0.0811         calculate D2E/DX2 analytically  !
 ! D5    D(4,1,5,3)            179.7464         calculate D2E/DX2 analytically  !
 ! D6    D(6,3,5,1)            178.6785         calculate D2E/DX2 analytically  !
 ! D7    D(6,3,5,2)             -1.4992         calculate D2E/DX2 analytically  !
 ! D8    D(7,3,5,1)            -57.2015         calculate D2E/DX2 analytically  !
 ! D9    D(7,3,5,2)            122.6208         calculate D2E/DX2 analytically  !
 ! D10   D(8,3,5,1)             54.2037         calculate D2E/DX2 analytically  !
 ! D11   D(8,3,5,2)           -125.9741         calculate D2E/DX2 analytically  !
 ! D12   D(5,3,6,12)          -179.2756         calculate D2E/DX2 analytically  !
 ! D13   D(5,3,6,13)             1.3837         calculate D2E/DX2 analytically  !
 ! D14   D(7,3,6,12)            59.5132         calculate D2E/DX2 analytically  !
 ! D15   D(7,3,6,13)          -119.8275         calculate D2E/DX2 analytically  !
 ! D16   D(8,3,6,12)           -57.5913         calculate D2E/DX2 analytically  !
 ! D17   D(8,3,6,13)           123.0679         calculate D2E/DX2 analytically  !
 --------------------------------------------------------------------------------
 Trust Radius=3.00D-01 FncErr=1.00D-07 GrdErr=1.00D-06 EigMax=2.50D+02 EigMin=1.00D-04
 Number of steps in this run=    100 maximum allowed number of steps=    100.
 GradGradGradGradGradGradGradGradGradGradGradGradGradGradGradGradGradGrad

 Leave Link  103 at Wed Mar 13 04:22:42 2019, MaxMem=   671088640 cpu:               0.1 elap:               0.0
 (Enter /shared/centos7/gaussian/g16/l202.exe)
                          Input orientation:                          
 ---------------------------------------------------------------------
 Center     Atomic      Atomic             Coordinates (Angstroms)
 Number     Number       Type             X           Y           Z
 ---------------------------------------------------------------------
      1          8           0        1.072593   -0.702527    0.003902
      2          8           0        0.065983    1.293516   -0.006974
      3          6           0       -1.276490   -0.714517   -0.010289
      4          6           0        2.330677   -0.031640    0.005207
      5          6           0       -0.003233    0.096887   -0.003313
      6          6           0       -2.499488    0.119491    0.012960
      7          1           0       -1.235934   -1.366573   -0.891148
      8          1           0       -1.227184   -1.404894    0.839456
      9          1           0        2.422720    0.597364    0.888344
     10          1           0        2.428425    0.590196   -0.882401
     11          1           0        3.084702   -0.811331    0.010822
     12          1           0       -3.470409   -0.347890    0.022250
     13          1           0       -2.419715    1.193886    0.009872
 ---------------------------------------------------------------------
                    Distance matrix (angstroms):
                    1          2          3          4          5
     1  O    0.000000
     2  O    2.235524   0.000000
     3  C    2.349156   2.415459   0.000000
     4  C    1.425786   2.623933   3.671269   0.000000
     5  C    1.340342   1.198635   1.509837   2.337462   0.000000
     6  C    3.665455   2.821413   1.480484   4.832535   2.496410
     7  H    2.563468   3.090764   1.096692   3.912315   2.109388
     8  H    2.545672   3.109685   1.095955   3.903866   2.112738
     9  H    2.072389   2.615422   4.026503   1.088140   2.632637
    10  H    2.072425   2.615753   4.023587   1.088156   2.632320
    11  H    2.015061   3.680131   4.362318   1.084667   3.218758
    12  H    4.556860   3.898863   2.224580   5.809725   3.495682
    13  H    3.973995   2.487751   2.224718   4.905931   2.653859
                    6          7          8          9         10
     6  C    0.000000
     7  H    2.149969   0.000000
     8  H    2.150721   1.731050   0.000000
     9  H    5.022230   4.517675   4.163319   0.000000
    10  H    5.030662   4.154100   4.506512   1.770769   0.000000
    11  H    5.661238   4.448566   4.430724   1.786809   1.786848
    12  H    1.077599   2.620093   2.610966   6.030970   6.041079
    13  H    1.077357   2.961271   2.977247   4.957492   4.966392
                   11         12         13
    11  H    0.000000
    12  H    6.571483   0.000000
    13  H    5.858285   1.865793   0.000000
 Stoichiometry    C4H7O2(2)
 Framework group  C1[X(C4H7O2)]
 Deg. of freedom    33
 Full point group                 C1      NOp   1
 Largest Abelian subgroup         C1      NOp   1
 Largest concise Abelian subgroup C1      NOp   1
                         Standard orientation:                         
 ---------------------------------------------------------------------
 Center     Atomic      Atomic             Coordinates (Angstroms)
 Number     Number       Type             X           Y           Z
 ---------------------------------------------------------------------
      1          8           0       -1.072593   -0.702527   -0.003902
      2          8           0       -0.065983    1.293516    0.006974
      3          6           0        1.276490   -0.714517    0.010289
      4          6           0       -2.330677   -0.031640   -0.005207
      5          6           0        0.003233    0.096887    0.003313
      6          6           0        2.499488    0.119491   -0.012960
      7          1           0        1.235934   -1.366573    0.891148
      8          1           0        1.227184   -1.404894   -0.839456
      9          1           0       -2.422720    0.597364   -0.888344
     10          1           0       -2.428425    0.590196    0.882401
     11          1           0       -3.084702   -0.811331   -0.010822
     12          1           0        3.470409   -0.347890   -0.022250
     13          1           0        2.419715    1.193886   -0.009872
 ---------------------------------------------------------------------
 Rotational constants (GHZ):           9.9236809           2.2577423           1.8816906
 Leave Link  202 at Wed Mar 13 04:22:42 2019, MaxMem=   671088640 cpu:               0.1 elap:               0.0
 (Enter /shared/centos7/gaussian/g16/l301.exe)
 Standard basis: 6-311+G(2df,2p) (5D, 7F)
 Ernie: Thresh=  0.10000D-02 Tol=  0.10000D-05 Strict=F.
 There are   297 symmetry adapted cartesian basis functions of A   symmetry.
 There are   267 symmetry adapted basis functions of A   symmetry.
   267 basis functions,   389 primitive gaussians,   297 cartesian basis functions
    24 alpha electrons       23 beta electrons
       nuclear repulsion energy       237.0906858266 Hartrees.
 IExCor= 4336 DFT=T Ex+Corr=M062X ExCW=0 ScaHFX=  0.540000
 ScaDFX=  1.000000  1.000000  1.000000  1.000000 ScalE2=  1.000000  1.000000
 IRadAn=      5 IRanWt=     -1 IRanGd=            0 ICorTp=0 IEmpDi=  4
 NAtoms=   13 NActive=   13 NUniq=   13 SFac= 1.00D+00 NAtFMM=   60 NAOKFM=F Big=F
 Integral buffers will be    131072 words long.
 Raffenetti 2 integral format.
 Two-electron integral symmetry is turned on.
 Leave Link  301 at Wed Mar 13 04:22:42 2019, MaxMem=   671088640 cpu:               0.9 elap:               0.1
 (Enter /shared/centos7/gaussian/g16/l302.exe)
 NPDir=0 NMtPBC=     1 NCelOv=     1 NCel=       1 NClECP=     1 NCelD=      1
         NCelK=      1 NCelE2=     1 NClLst=     1 CellRange=     0.0.
 One-electron integrals computed using PRISM.
 One-electron integral symmetry used in STVInt
 NBasis=   267 RedAO= T EigKep=  2.86D-05  NBF=   267
 NBsUse=   267 1.00D-06 EigRej= -1.00D+00 NBFU=   267
 Precomputing XC quadrature grid using
 IXCGrd= 4 IRadAn=           5 IRanWt=          -1 IRanGd=           0 AccXCQ= 0.00D+00.
 Generated NRdTot=       0 NPtTot=           0 NUsed=           0 NTot=          32
 NSgBfM=   297   297   297   297   297 MxSgAt=    13 MxSgA2=    13.
 Leave Link  302 at Wed Mar 13 04:22:42 2019, MaxMem=   671088640 cpu:               5.7 elap:               0.3
 (Enter /shared/centos7/gaussian/g16/l303.exe)
 DipDrv:  MaxL=1.
 Leave Link  303 at Wed Mar 13 04:22:42 2019, MaxMem=   671088640 cpu:               0.5 elap:               0.0
 (Enter /shared/centos7/gaussian/g16/l401.exe)
 ExpMin= 4.38D-02 ExpMax= 8.59D+03 ExpMxC= 1.30D+03 IAcc=3 IRadAn=         5 AccDes= 0.00D+00
 Harris functional with IExCor= 1009 and IRadAn=       5 diagonalized for initial guess.
 HarFok:  IExCor= 1009 AccDes= 0.00D+00 IRadAn=         5 IDoV= 1 UseB2=F ITyADJ=14
 ICtDFT=  3500011 ScaDFX=  1.000000  1.000000  1.000000  1.000000
 FoFCou: FMM=F IPFlag=           0 FMFlag=      100000 FMFlg1=           0
         NFxFlg=           0 DoJE=T BraDBF=F KetDBF=T FulRan=T
         wScrn=  0.000000 ICntrl=       500 IOpCl=  0 I1Cent=   200000004 NGrid=           0
         NMat0=    1 NMatS0=      1 NMatT0=    0 NMatD0=    1 NMtDS0=    0 NMtDT0=    0
 Petite list used in FoFCou.
 Harris En= -306.860627181737    
 JPrj=0 DoOrth=F DoCkMO=F.
 Initial guess <Sx>= 0.0000 <Sy>= 0.0000 <Sz>= 0.5000 <S**2>= 0.7500 S= 0.5000
 Leave Link  401 at Wed Mar 13 04:22:43 2019, MaxMem=   671088640 cpu:              16.3 elap:               0.8
 (Enter /shared/centos7/gaussian/g16/l502.exe)
 Integral symmetry usage will be decided dynamically.
 UHF open shell SCF:
 Using DIIS extrapolation, IDIIS=  1040.
 NGot=   671088640 LenX=   670903575 LenY=   670814925
 Requested convergence on RMS density matrix=1.00D-08 within 128 cycles.
 Requested convergence on MAX density matrix=1.00D-06.
 Requested convergence on             energy=1.00D-06.
 No special actions if energy rises.
 Fock matrices will be formed incrementally for  20 cycles.

 Cycle   1  Pass 1  IDiag  1:
 FoFJK:  IHMeth= 1 ICntrl=       0 DoSepK=F KAlg= 0 I1Cent=           0 FoldK=F
 IRaf= 960000000 NMat=       1 IRICut=       1 DoRegI=T DoRafI=F ISym2E= 0 IDoP0=0 IntGTp=1.
 FoFCou: FMM=F IPFlag=           0 FMFlag=      100000 FMFlg1=           0
         NFxFlg=           0 DoJE=F BraDBF=F KetDBF=F FulRan=T
         wScrn=  0.000000 ICntrl=         0 IOpCl=  1 I1Cent=           0 NGrid=           0
         NMat0=    1 NMatS0=      1 NMatT0=    0 NMatD0=    1 NMtDS0=    0 NMtDT0=    0
 Symmetry not used in FoFCou.
 E= -306.826258795037    
 DIIS: error= 2.87D-02 at cycle   1 NSaved=   1.
 NSaved= 1 IEnMin= 1 EnMin= -306.826258795037     IErMin= 1 ErrMin= 2.87D-02
 ErrMax= 2.87D-02  0.00D+00 EMaxC= 1.00D-01 BMatC= 9.99D-01 BMatP= 9.99D-01
 IDIUse=3 WtCom= 7.13D-01 WtEn= 2.87D-01
 Coeff-Com:  0.100D+01
 Coeff-En:   0.100D+01
 Coeff:      0.100D+01
 Gap=     0.263 Goal=   None    Shift=    0.000
 Gap=     0.327 Goal=   None    Shift=    0.000
 GapD=    0.263 DampG=1.000 DampE=0.500 DampFc=0.5000 IDamp=-1.
 Damping current iteration by 5.00D-01
 RMSDP=2.57D-03 MaxDP=1.30D-01              OVMax= 1.93D-01

 Cycle   2  Pass 1  IDiag  1:
 RMSU=  1.26D-03    CP:  9.73D-01
 E= -306.910085787728     Delta-E=       -0.083826992691 Rises=F Damp=T
 DIIS: error= 7.46D-03 at cycle   2 NSaved=   2.
 NSaved= 2 IEnMin= 2 EnMin= -306.910085787728     IErMin= 2 ErrMin= 7.46D-03
 ErrMax= 7.46D-03  0.00D+00 EMaxC= 1.00D-01 BMatC= 9.27D-02 BMatP= 9.99D-01
 IDIUse=3 WtCom= 9.25D-01 WtEn= 7.46D-02
 Coeff-Com: -0.218D-01 0.102D+01
 Coeff-En:   0.000D+00 0.100D+01
 Coeff:     -0.202D-01 0.102D+01
 Gap=     0.267 Goal=   None    Shift=    0.000
 Gap=     0.391 Goal=   None    Shift=    0.000
 RMSDP=1.07D-03 MaxDP=8.14D-02 DE=-8.38D-02 OVMax= 1.11D-01

 Cycle   3  Pass 1  IDiag  1:
 RMSU=  1.03D-03    CP:  9.45D-01  1.03D+00
 E= -306.993447336827     Delta-E=       -0.083361549099 Rises=F Damp=F
 DIIS: error= 7.40D-03 at cycle   3 NSaved=   3.
 NSaved= 3 IEnMin= 3 EnMin= -306.993447336827     IErMin= 3 ErrMin= 7.40D-03
 ErrMax= 7.40D-03  0.00D+00 EMaxC= 1.00D-01 BMatC= 6.38D-02 BMatP= 9.27D-02
 IDIUse=3 WtCom= 9.26D-01 WtEn= 7.40D-02
 Coeff-Com: -0.934D-01 0.491D+00 0.602D+00
 Coeff-En:   0.000D+00 0.000D+00 0.100D+01
 Coeff:     -0.865D-01 0.455D+00 0.632D+00
 Gap=     0.283 Goal=   None    Shift=    0.000
 Gap=     0.330 Goal=   None    Shift=    0.000
 RMSDP=3.88D-04 MaxDP=1.54D-02 DE=-8.34D-02 OVMax= 4.49D-02

 Cycle   4  Pass 1  IDiag  1:
 RMSU=  3.63D-04    CP:  9.46D-01  1.12D+00  9.19D-01
 E= -307.003148932924     Delta-E=       -0.009701596097 Rises=F Damp=F
 DIIS: error= 2.31D-03 at cycle   4 NSaved=   4.
 NSaved= 4 IEnMin= 4 EnMin= -307.003148932924     IErMin= 4 ErrMin= 2.31D-03
 ErrMax= 2.31D-03  0.00D+00 EMaxC= 1.00D-01 BMatC= 1.02D-02 BMatP= 6.38D-02
 IDIUse=3 WtCom= 9.77D-01 WtEn= 2.31D-02
 Coeff-Com: -0.327D-01 0.788D-01 0.321D+00 0.633D+00
 Coeff-En:   0.000D+00 0.000D+00 0.118D+00 0.882D+00
 Coeff:     -0.319D-01 0.769D-01 0.316D+00 0.639D+00
 Gap=     0.278 Goal=   None    Shift=    0.000
 Gap=     0.332 Goal=   None    Shift=    0.000
 RMSDP=1.30D-04 MaxDP=5.36D-03 DE=-9.70D-03 OVMax= 1.14D-02

 Cycle   5  Pass 1  IDiag  1:
 RMSU=  6.63D-05    CP:  9.43D-01  1.10D+00  9.83D-01  7.67D-01
 E= -307.005036556123     Delta-E=       -0.001887623199 Rises=F Damp=F
 DIIS: error= 4.16D-04 at cycle   5 NSaved=   5.
 NSaved= 5 IEnMin= 5 EnMin= -307.005036556123     IErMin= 5 ErrMin= 4.16D-04
 ErrMax= 4.16D-04  0.00D+00 EMaxC= 1.00D-01 BMatC= 2.98D-04 BMatP= 1.02D-02
 IDIUse=3 WtCom= 9.96D-01 WtEn= 4.16D-03
 Coeff-Com: -0.751D-02 0.902D-02 0.946D-01 0.244D+00 0.660D+00
 Coeff-En:   0.000D+00 0.000D+00 0.000D+00 0.000D+00 0.100D+01
 Coeff:     -0.748D-02 0.899D-02 0.942D-01 0.243D+00 0.661D+00
 Gap=     0.278 Goal=   None    Shift=    0.000
 Gap=     0.332 Goal=   None    Shift=    0.000
 RMSDP=2.63D-05 MaxDP=1.32D-03 DE=-1.89D-03 OVMax= 2.68D-03

 Cycle   6  Pass 1  IDiag  1:
 RMSU=  2.44D-05    CP:  9.43D-01  1.10D+00  9.86D-01  7.87D-01  9.48D-01
 E= -307.005096050161     Delta-E=       -0.000059494038 Rises=F Damp=F
 DIIS: error= 1.79D-04 at cycle   6 NSaved=   6.
 NSaved= 6 IEnMin= 6 EnMin= -307.005096050161     IErMin= 6 ErrMin= 1.79D-04
 ErrMax= 1.79D-04  0.00D+00 EMaxC= 1.00D-01 BMatC= 5.30D-05 BMatP= 2.98D-04
 IDIUse=3 WtCom= 9.98D-01 WtEn= 1.79D-03
 Coeff-Com:  0.292D-02-0.110D-01-0.202D-01-0.233D-01 0.255D+00 0.797D+00
 Coeff-En:   0.000D+00 0.000D+00 0.000D+00 0.000D+00 0.000D+00 0.100D+01
 Coeff:      0.291D-02-0.110D-01-0.202D-01-0.233D-01 0.255D+00 0.797D+00
 Gap=     0.279 Goal=   None    Shift=    0.000
 Gap=     0.332 Goal=   None    Shift=    0.000
 RMSDP=1.52D-05 MaxDP=6.40D-04 DE=-5.95D-05 OVMax= 1.42D-03

 Cycle   7  Pass 1  IDiag  1:
 RMSU=  1.11D-05    CP:  9.43D-01  1.10D+00  9.91D-01  7.98D-01  1.06D+00
                    CP:  1.08D+00
 E= -307.005111199962     Delta-E=       -0.000015149801 Rises=F Damp=F
 DIIS: error= 7.32D-05 at cycle   7 NSaved=   7.
 NSaved= 7 IEnMin= 7 EnMin= -307.005111199962     IErMin= 7 ErrMin= 7.32D-05
 ErrMax= 7.32D-05  0.00D+00 EMaxC= 1.00D-01 BMatC= 5.08D-06 BMatP= 5.30D-05
 IDIUse=1 WtCom= 1.00D+00 WtEn= 0.00D+00
 Coeff-Com:  0.214D-02-0.413D-02-0.217D-01-0.539D-01-0.687D-01 0.168D+00
 Coeff-Com:  0.978D+00
 Coeff:      0.214D-02-0.413D-02-0.217D-01-0.539D-01-0.687D-01 0.168D+00
 Coeff:      0.978D+00
 Gap=     0.279 Goal=   None    Shift=    0.000
 Gap=     0.333 Goal=   None    Shift=    0.000
 RMSDP=6.91D-06 MaxDP=5.26D-04 DE=-1.51D-05 OVMax= 6.25D-04

 Cycle   8  Pass 1  IDiag  1:
 RMSU=  4.59D-06    CP:  9.43D-01  1.10D+00  9.91D-01  7.97D-01  1.10D+00
                    CP:  1.22D+00  1.18D+00
 E= -307.005113448144     Delta-E=       -0.000002248182 Rises=F Damp=F
 DIIS: error= 1.75D-05 at cycle   8 NSaved=   8.
 NSaved= 8 IEnMin= 8 EnMin= -307.005113448144     IErMin= 8 ErrMin= 1.75D-05
 ErrMax= 1.75D-05  0.00D+00 EMaxC= 1.00D-01 BMatC= 5.23D-07 BMatP= 5.08D-06
 IDIUse=1 WtCom= 1.00D+00 WtEn= 0.00D+00
 Coeff-Com:  0.327D-03-0.294D-03-0.409D-02-0.133D-01-0.392D-01-0.104D-01
 Coeff-Com:  0.283D+00 0.784D+00
 Coeff:      0.327D-03-0.294D-03-0.409D-02-0.133D-01-0.392D-01-0.104D-01
 Coeff:      0.283D+00 0.784D+00
 Gap=     0.279 Goal=   None    Shift=    0.000
 Gap=     0.333 Goal=   None    Shift=    0.000
 RMSDP=1.92D-06 MaxDP=9.53D-05 DE=-2.25D-06 OVMax= 1.50D-04

 Cycle   9  Pass 1  IDiag  1:
 RMSU=  1.48D-06    CP:  9.43D-01  1.10D+00  9.91D-01  7.96D-01  1.11D+00
                    CP:  1.23D+00  1.25D+00  1.14D+00
 E= -307.005113609665     Delta-E=       -0.000000161521 Rises=F Damp=F
 DIIS: error= 7.20D-06 at cycle   9 NSaved=   9.
 NSaved= 9 IEnMin= 9 EnMin= -307.005113609665     IErMin= 9 ErrMin= 7.20D-06
 ErrMax= 7.20D-06  0.00D+00 EMaxC= 1.00D-01 BMatC= 5.29D-08 BMatP= 5.23D-07
 IDIUse=1 WtCom= 1.00D+00 WtEn= 0.00D+00
 Coeff-Com: -0.284D-03 0.627D-03 0.249D-02 0.551D-02 0.107D-02-0.257D-01
 Coeff-Com: -0.951D-01 0.150D+00 0.961D+00
 Coeff:     -0.284D-03 0.627D-03 0.249D-02 0.551D-02 0.107D-02-0.257D-01
 Coeff:     -0.951D-01 0.150D+00 0.961D+00
 Gap=     0.279 Goal=   None    Shift=    0.000
 Gap=     0.333 Goal=   None    Shift=    0.000
 RMSDP=9.36D-07 MaxDP=4.62D-05 DE=-1.62D-07 OVMax= 6.31D-05

 Cycle  10  Pass 1  IDiag  1:
 RMSU=  4.58D-07    CP:  9.43D-01  1.10D+00  9.90D-01  7.95D-01  1.10D+00
                    CP:  1.23D+00  1.28D+00  1.28D+00  1.15D+00
 E= -307.005113631067     Delta-E=       -0.000000021402 Rises=F Damp=F
 DIIS: error= 1.40D-06 at cycle  10 NSaved=  10.
 NSaved=10 IEnMin=10 EnMin= -307.005113631067     IErMin=10 ErrMin= 1.40D-06
 ErrMax= 1.40D-06  0.00D+00 EMaxC= 1.00D-01 BMatC= 2.59D-09 BMatP= 5.29D-08
 IDIUse=1 WtCom= 1.00D+00 WtEn= 0.00D+00
 Coeff-Com: -0.276D-04 0.436D-04 0.239D-03 0.969D-03 0.212D-02 0.853D-03
 Coeff-Com: -0.202D-01-0.456D-01 0.243D-01 0.104D+01
 Coeff:     -0.276D-04 0.436D-04 0.239D-03 0.969D-03 0.212D-02 0.853D-03
 Coeff:     -0.202D-01-0.456D-01 0.243D-01 0.104D+01
 Gap=     0.279 Goal=   None    Shift=    0.000
 Gap=     0.333 Goal=   None    Shift=    0.000
 RMSDP=2.23D-07 MaxDP=1.14D-05 DE=-2.14D-08 OVMax= 1.43D-05

 Cycle  11  Pass 1  IDiag  1:
 RMSU=  1.11D-07    CP:  9.43D-01  1.10D+00  9.90D-01  7.95D-01  1.10D+00
                    CP:  1.23D+00  1.28D+00  1.30D+00  1.23D+00  1.19D+00
 E= -307.005113632332     Delta-E=       -0.000000001266 Rises=F Damp=F
 DIIS: error= 6.06D-07 at cycle  11 NSaved=  11.
 NSaved=11 IEnMin=11 EnMin= -307.005113632332     IErMin=11 ErrMin= 6.06D-07
 ErrMax= 6.06D-07  0.00D+00 EMaxC= 1.00D-01 BMatC= 1.95D-10 BMatP= 2.59D-09
 IDIUse=1 WtCom= 1.00D+00 WtEn= 0.00D+00
 Coeff-Com:  0.149D-04-0.341D-04-0.134D-03-0.261D-03 0.151D-03 0.141D-02
 Coeff-Com:  0.420D-02-0.115D-01-0.615D-01 0.831D-01 0.985D+00
 Coeff:      0.149D-04-0.341D-04-0.134D-03-0.261D-03 0.151D-03 0.141D-02
 Coeff:      0.420D-02-0.115D-01-0.615D-01 0.831D-01 0.985D+00
 Gap=     0.279 Goal=   None    Shift=    0.000
 Gap=     0.333 Goal=   None    Shift=    0.000
 RMSDP=5.34D-08 MaxDP=2.80D-06 DE=-1.27D-09 OVMax= 6.18D-06

 Cycle  12  Pass 1  IDiag  1:
 RMSU=  2.79D-08    CP:  9.43D-01  1.10D+00  9.90D-01  7.95D-01  1.10D+00
                    CP:  1.23D+00  1.28D+00  1.30D+00  1.23D+00  1.27D+00
                    CP:  1.18D+00
 E= -307.005113632456     Delta-E=       -0.000000000123 Rises=F Damp=F
 DIIS: error= 3.05D-07 at cycle  12 NSaved=  12.
 NSaved=12 IEnMin=12 EnMin= -307.005113632456     IErMin=12 ErrMin= 3.05D-07
 ErrMax= 3.05D-07  0.00D+00 EMaxC= 1.00D-01 BMatC= 5.51D-11 BMatP= 1.95D-10
 IDIUse=1 WtCom= 1.00D+00 WtEn= 0.00D+00
 Coeff-Com:  0.745D-05-0.146D-04-0.737D-04-0.184D-03-0.142D-03 0.420D-03
 Coeff-Com:  0.339D-02 0.528D-03-0.235D-01-0.725D-01 0.315D+00 0.777D+00
 Coeff:      0.745D-05-0.146D-04-0.737D-04-0.184D-03-0.142D-03 0.420D-03
 Coeff:      0.339D-02 0.528D-03-0.235D-01-0.725D-01 0.315D+00 0.777D+00
 Gap=     0.279 Goal=   None    Shift=    0.000
 Gap=     0.333 Goal=   None    Shift=    0.000
 RMSDP=1.76D-08 MaxDP=8.99D-07 DE=-1.23D-10 OVMax= 2.79D-06

 Cycle  13  Pass 1  IDiag  1:
 RMSU=  1.36D-08    CP:  9.43D-01  1.10D+00  9.90D-01  7.95D-01  1.10D+00
                    CP:  1.23D+00  1.28D+00  1.29D+00  1.23D+00  1.28D+00
                    CP:  1.26D+00  1.12D+00
 E= -307.005113632480     Delta-E=       -0.000000000024 Rises=F Damp=F
 DIIS: error= 1.47D-07 at cycle  13 NSaved=  13.
 NSaved=13 IEnMin=13 EnMin= -307.005113632480     IErMin=13 ErrMin= 1.47D-07
 ErrMax= 1.47D-07  0.00D+00 EMaxC= 1.00D-01 BMatC= 1.04D-11 BMatP= 5.51D-11
 IDIUse=1 WtCom= 1.00D+00 WtEn= 0.00D+00
 Coeff-Com: -0.337D-05 0.718D-05 0.254D-04 0.549D-04-0.438D-04-0.268D-03
 Coeff-Com: -0.811D-03 0.263D-02 0.133D-01-0.234D-01-0.227D+00 0.517D-01
 Coeff-Com:  0.118D+01
 Coeff:     -0.337D-05 0.718D-05 0.254D-04 0.549D-04-0.438D-04-0.268D-03
 Coeff:     -0.811D-03 0.263D-02 0.133D-01-0.234D-01-0.227D+00 0.517D-01
 Coeff:      0.118D+01
 Gap=     0.279 Goal=   None    Shift=    0.000
 Gap=     0.333 Goal=   None    Shift=    0.000
 RMSDP=1.36D-08 MaxDP=7.71D-07 DE=-2.39D-11 OVMax= 2.17D-06

 Cycle  14  Pass 1  IDiag  1:
 RMSU=  6.35D-09    CP:  9.43D-01  1.10D+00  9.90D-01  7.95D-01  1.10D+00
                    CP:  1.23D+00  1.28D+00  1.29D+00  1.23D+00  1.28D+00
                    CP:  1.30D+00  1.43D+00  1.45D+00
 E= -307.005113632496     Delta-E=       -0.000000000017 Rises=F Damp=F
 DIIS: error= 6.73D-08 at cycle  14 NSaved=  14.
 NSaved=14 IEnMin=14 EnMin= -307.005113632496     IErMin=14 ErrMin= 6.73D-08
 ErrMax= 6.73D-08  0.00D+00 EMaxC= 1.00D-01 BMatC= 1.50D-12 BMatP= 1.04D-11
 IDIUse=1 WtCom= 1.00D+00 WtEn= 0.00D+00
 Coeff-Com: -0.589D-06 0.116D-05 0.927D-05 0.211D-04 0.297D-04-0.379D-04
 Coeff-Com: -0.453D-03-0.559D-03 0.199D-02 0.168D-01-0.111D-01-0.145D+00
 Coeff-Com: -0.236D+00 0.137D+01
 Coeff:     -0.589D-06 0.116D-05 0.927D-05 0.211D-04 0.297D-04-0.379D-04
 Coeff:     -0.453D-03-0.559D-03 0.199D-02 0.168D-01-0.111D-01-0.145D+00
 Coeff:     -0.236D+00 0.137D+01
 Gap=     0.279 Goal=   None    Shift=    0.000
 Gap=     0.333 Goal=   None    Shift=    0.000
 RMSDP=6.88D-09 MaxDP=4.44D-07 DE=-1.68D-11 OVMax= 1.27D-06

 SCF Done:  E(UM062X) =  -307.005113632     A.U. after   14 cycles
            NFock= 14  Conv=0.69D-08     -V/T= 2.0035
 <Sx>= 0.0000 <Sy>= 0.0000 <Sz>= 0.5000 <S**2>= 0.7552 S= 0.5026
 <L.S>= 0.000000000000E+00
 KE= 3.059336774302D+02 PE=-1.192520746239D+03 EE= 3.424912693498D+02
 Annihilation of the first spin contaminant:
 S**2 before annihilation     0.7552,   after     0.7500
 Leave Link  502 at Wed Mar 13 04:23:36 2019, MaxMem=   671088640 cpu:            1054.0 elap:              52.7
 (Enter /shared/centos7/gaussian/g16/l801.exe)
 DoSCS=F DFT=T ScalE2(SS,OS)=  1.000000  1.000000
 Range of M.O.s used for correlation:     1   267
 NBasis=   267 NAE=    24 NBE=    23 NFC=     0 NFV=     0
 NROrb=    267 NOA=    24 NOB=    23 NVA=   243 NVB=   244

 **** Warning!!: The largest alpha MO coefficient is  0.77320486D+02


 **** Warning!!: The largest beta MO coefficient is  0.69363322D+02

 Leave Link  801 at Wed Mar 13 04:23:36 2019, MaxMem=   671088640 cpu:               0.4 elap:               0.0
 (Enter /shared/centos7/gaussian/g16/l1101.exe)
 Using compressed storage, NAtomX=    13.
 Will process     14 centers per pass.
 Leave Link 1101 at Wed Mar 13 04:23:36 2019, MaxMem=   671088640 cpu:               5.9 elap:               0.3
 (Enter /shared/centos7/gaussian/g16/l1102.exe)
 Symmetrizing basis deriv contribution to polar:
 IMax=3 JMax=2 DiffMx= 0.00D+00
 Leave Link 1102 at Wed Mar 13 04:23:36 2019, MaxMem=   671088640 cpu:               0.6 elap:               0.1
 (Enter /shared/centos7/gaussian/g16/l1110.exe)
 Forming Gx(P) for the SCF density, NAtomX=    13.
 Integral derivatives from FoFJK, PRISM(SPDF).
 Do as many integral derivatives as possible in FoFJK.
 G2DrvN: MDV=     671087568.
 G2DrvN: will do    14 centers at a time, making    1 passes.
 Calling FoFCou, ICntrl=  3107 FMM=F I1Cent=   0 AccDes= 0.00D+00.
 FoFJK:  IHMeth= 1 ICntrl=    3107 DoSepK=F KAlg= 0 I1Cent=           0 FoldK=F
 IRaf=         0 NMat=       1 IRICut=       1 DoRegI=T DoRafI=F ISym2E= 0 IDoP0=0 IntGTp=1.
 FoFCou: FMM=F IPFlag=           0 FMFlag=      100000 FMFlg1=           0
         NFxFlg=           0 DoJE=F BraDBF=F KetDBF=F FulRan=T
         wScrn=  0.000000 ICntrl=      3107 IOpCl=  1 I1Cent=           0 NGrid=           0
         NMat0=    1 NMatS0=      1 NMatT0=    0 NMatD0=    1 NMtDS0=    0 NMtDT0=    0
 Symmetry not used in FoFCou.
 End of G2Drv F.D. properties file   721 does not exist.
 End of G2Drv F.D. properties file   722 does not exist.
 End of G2Drv F.D. properties file   788 does not exist.
 Leave Link 1110 at Wed Mar 13 04:25:11 2019, MaxMem=   671088640 cpu:            1902.0 elap:              95.1
 (Enter /shared/centos7/gaussian/g16/l1002.exe)
 Minotr:  UHF open shell wavefunction.
          IDoAtm=1111111111111
          Direct CPHF calculation.
          Differentiating once with respect to nuclear coordinates.
          Requested convergence is 1.0D-08 RMS, and 1.0D-07 maximum.
          Secondary convergence is 1.0D-12 RMS, and 1.0D-12 maximum.
          NewPWx=T KeepS1=F KeepF1=F KeepIn=T MapXYZ=F SortEE=F KeepMc=T.
         3973 words used for storage of precomputed grid.
 Two-electron integrals replicated using symmetry.
          MDV=     671088640 using IRadAn=       1.
          Solving linear equations simultaneously, MaxMat=     380.
 FoF2E skips out because all densities are zero.
 CalDSu exits because no D1Ps are significant.
 FoFJK:  IHMeth= 1 ICntrl=       0 DoSepK=F KAlg= 0 I1Cent=           0 FoldK=F
 IRaf= 950000000 NMat=      39 IRICut=      97 DoRegI=T DoRafI=T ISym2E= 2 IDoP0=3 IntGTp=3.
 FoFCou: FMM=F IPFlag=           0 FMFlag=      100000 FMFlg1=           0
         NFxFlg=           0 DoJE=F BraDBF=F KetDBF=F FulRan=T
         wScrn=  0.000000 ICntrl=         0 IOpCl=  1 I1Cent=           0 NGrid=           0
         NMat0=   39 NMatS0=     39 NMatT0=    0 NMatD0=   39 NMtDS0=    0 NMtDT0=    0
 Integrals replicated using symmetry in FoFCou.
 Raff kept on since  92.80% of shell-pairs survive, threshold=   0.20 IRatSp=93.
          There are    42 degrees of freedom in the 1st order CPHF.  IDoFFX=6 NUNeed=     0.
     36 vectors produced by pass  0 Test12= 2.72D-14 2.38D-09 XBig12= 1.57D-01 8.45D-02.
 AX will form    36 AO Fock derivatives at one time.
     36 vectors produced by pass  1 Test12= 2.72D-14 2.38D-09 XBig12= 1.67D-02 3.93D-02.
     36 vectors produced by pass  2 Test12= 2.72D-14 2.38D-09 XBig12= 5.51D-04 3.93D-03.
     36 vectors produced by pass  3 Test12= 2.72D-14 2.38D-09 XBig12= 5.20D-06 4.39D-04.
     36 vectors produced by pass  4 Test12= 2.72D-14 2.38D-09 XBig12= 6.54D-08 3.55D-05.
     36 vectors produced by pass  5 Test12= 2.72D-14 2.38D-09 XBig12= 6.08D-10 3.01D-06.
     36 vectors produced by pass  6 Test12= 2.72D-14 2.38D-09 XBig12= 4.94D-12 2.79D-07.
     18 vectors produced by pass  7 Test12= 2.72D-14 2.38D-09 XBig12= 4.85D-14 2.43D-08.
 InvSVY:  IOpt=1 It=  1 EMax= 1.55D-15
 Solved reduced A of dimension   270 with    36 vectors.
 End of Minotr F.D. properties file   721 does not exist.
 End of Minotr F.D. properties file   722 does not exist.
 End of Minotr F.D. properties file   788 does not exist.
 Leave Link 1002 at Wed Mar 13 04:27:38 2019, MaxMem=   671088640 cpu:            2937.1 elap:             146.9
 (Enter /shared/centos7/gaussian/g16/l601.exe)
 Copying SCF densities to generalized density rwf, IOpCl= 1 IROHF=0.

 **********************************************************************

            Population analysis using the SCF density.

 **********************************************************************

 Orbital symmetries:
 Alpha Orbitals:
       Occupied  (A) (A) (A) (A) (A) (A) (A) (A) (A) (A) (A) (A)
                 (A) (A) (A) (A) (A) (A) (A) (A) (A) (A) (A) (A)
       Virtual   (A) (A) (A) (A) (A) (A) (A) (A) (A) (A) (A) (A)
                 (A) (A) (A) (A) (A) (A) (A) (A) (A) (A) (A) (A)
                 (A) (A) (A) (A) (A) (A) (A) (A) (A) (A) (A) (A)
                 (A) (A) (A) (A) (A) (A) (A) (A) (A) (A) (A) (A)
                 (A) (A) (A) (A) (A) (A) (A) (A) (A) (A) (A) (A)
                 (A) (A) (A) (A) (A) (A) (A) (A) (A) (A) (A) (A)
                 (A) (A) (A) (A) (A) (A) (A) (A) (A) (A) (A) (A)
                 (A) (A) (A) (A) (A) (A) (A) (A) (A) (A) (A) (A)
                 (A) (A) (A) (A) (A) (A) (A) (A) (A) (A) (A) (A)
                 (A) (A) (A) (A) (A) (A) (A) (A) (A) (A) (A) (A)
                 (A) (A) (A) (A) (A) (A) (A) (A) (A) (A) (A) (A)
                 (A) (A) (A) (A) (A) (A) (A) (A) (A) (A) (A) (A)
                 (A) (A) (A) (A) (A) (A) (A) (A) (A) (A) (A) (A)
                 (A) (A) (A) (A) (A) (A) (A) (A) (A) (A) (A) (A)
                 (A) (A) (A) (A) (A) (A) (A) (A) (A) (A) (A) (A)
                 (A) (A) (A) (A) (A) (A) (A) (A) (A) (A) (A) (A)
                 (A) (A) (A) (A) (A) (A) (A) (A) (A) (A) (A) (A)
                 (A) (A) (A) (A) (A) (A) (A) (A) (A) (A) (A) (A)
                 (A) (A) (A) (A) (A) (A) (A) (A) (A) (A) (A) (A)
                 (A) (A) (A) (A) (A) (A) (A) (A) (A) (A) (A) (A)
                 (A) (A) (A)
 Beta  Orbitals:
       Occupied  (A) (A) (A) (A) (A) (A) (A) (A) (A) (A) (A) (A)
                 (A) (A) (A) (A) (A) (A) (A) (A) (A) (A) (A)
       Virtual   (A) (A) (A) (A) (A) (A) (A) (A) (A) (A) (A) (A)
                 (A) (A) (A) (A) (A) (A) (A) (A) (A) (A) (A) (A)
                 (A) (A) (A) (A) (A) (A) (A) (A) (A) (A) (A) (A)
                 (A) (A) (A) (A) (A) (A) (A) (A) (A) (A) (A) (A)
                 (A) (A) (A) (A) (A) (A) (A) (A) (A) (A) (A) (A)
                 (A) (A) (A) (A) (A) (A) (A) (A) (A) (A) (A) (A)
                 (A) (A) (A) (A) (A) (A) (A) (A) (A) (A) (A) (A)
                 (A) (A) (A) (A) (A) (A) (A) (A) (A) (A) (A) (A)
                 (A) (A) (A) (A) (A) (A) (A) (A) (A) (A) (A) (A)
                 (A) (A) (A) (A) (A) (A) (A) (A) (A) (A) (A) (A)
                 (A) (A) (A) (A) (A) (A) (A) (A) (A) (A) (A) (A)
                 (A) (A) (A) (A) (A) (A) (A) (A) (A) (A) (A) (A)
                 (A) (A) (A) (A) (A) (A) (A) (A) (A) (A) (A) (A)
                 (A) (A) (A) (A) (A) (A) (A) (A) (A) (A) (A) (A)
                 (A) (A) (A) (A) (A) (A) (A) (A) (A) (A) (A) (A)
                 (A) (A) (A) (A) (A) (A) (A) (A) (A) (A) (A) (A)
                 (A) (A) (A) (A) (A) (A) (A) (A) (A) (A) (A) (A)
                 (A) (A) (A) (A) (A) (A) (A) (A) (A) (A) (A) (A)
                 (A) (A) (A) (A) (A) (A) (A) (A) (A) (A) (A) (A)
                 (A) (A) (A) (A) (A) (A) (A) (A) (A) (A) (A) (A)
                 (A) (A) (A) (A)
 The electronic state is 2-A.
 Alpha  occ. eigenvalues --  -19.67266 -19.61669 -10.67337 -10.59189 -10.55914
 Alpha  occ. eigenvalues --  -10.54571  -1.24300  -1.14797  -0.90032  -0.82564
 Alpha  occ. eigenvalues --   -0.72521  -0.64885  -0.59879  -0.58265  -0.56704
 Alpha  occ. eigenvalues --   -0.51813  -0.51642  -0.46836  -0.45804  -0.45164
 Alpha  occ. eigenvalues --   -0.43395  -0.38344  -0.36114  -0.26711
 Alpha virt. eigenvalues --    0.01238   0.02420   0.03754   0.04270   0.04860
 Alpha virt. eigenvalues --    0.05055   0.05747   0.07879   0.08159   0.09396
 Alpha virt. eigenvalues --    0.09654   0.09711   0.11680   0.12108   0.14956
 Alpha virt. eigenvalues --    0.16290   0.18169   0.19106   0.19944   0.21379
 Alpha virt. eigenvalues --    0.22416   0.23014   0.23097   0.23584   0.26234
 Alpha virt. eigenvalues --    0.27483   0.28024   0.29177   0.29765   0.30344
 Alpha virt. eigenvalues --    0.31763   0.33479   0.34103   0.36877   0.39592
 Alpha virt. eigenvalues --    0.41122   0.44055   0.46790   0.47948   0.49010
 Alpha virt. eigenvalues --    0.50561   0.52562   0.53444   0.54078   0.54488
 Alpha virt. eigenvalues --    0.55171   0.56345   0.57226   0.58233   0.61071
 Alpha virt. eigenvalues --    0.63426   0.63733   0.64515   0.65543   0.66917
 Alpha virt. eigenvalues --    0.68099   0.70225   0.71010   0.75513   0.78498
 Alpha virt. eigenvalues --    0.79481   0.81547   0.86096   0.88392   0.89318
 Alpha virt. eigenvalues --    0.91068   0.94411   0.94677   0.98000   1.00579
 Alpha virt. eigenvalues --    1.03324   1.05096   1.05946   1.06911   1.09615
 Alpha virt. eigenvalues --    1.10231   1.12703   1.13464   1.14139   1.18785
 Alpha virt. eigenvalues --    1.19131   1.20291   1.21847   1.22384   1.25465
 Alpha virt. eigenvalues --    1.25711   1.26095   1.27441   1.33269   1.33954
 Alpha virt. eigenvalues --    1.35642   1.38708   1.40494   1.41100   1.42905
 Alpha virt. eigenvalues --    1.43497   1.43969   1.46341   1.48257   1.51171
 Alpha virt. eigenvalues --    1.54370   1.56918   1.58403   1.60921   1.64558
 Alpha virt. eigenvalues --    1.67620   1.67924   1.72754   1.78390   1.85301
 Alpha virt. eigenvalues --    1.86712   1.92832   2.05707   2.09333   2.12045
 Alpha virt. eigenvalues --    2.32766   2.35312   2.39095   2.44332   2.49930
 Alpha virt. eigenvalues --    2.55574   2.56053   2.57360   2.68364   2.72454
 Alpha virt. eigenvalues --    2.73182   2.76374   2.76850   2.77609   2.80578
 Alpha virt. eigenvalues --    2.82991   2.88505   2.95406   2.95897   2.96415
 Alpha virt. eigenvalues --    2.98129   2.99146   3.00336   3.03807   3.08177
 Alpha virt. eigenvalues --    3.08996   3.10176   3.12233   3.13590   3.16581
 Alpha virt. eigenvalues --    3.20320   3.20849   3.23842   3.25451   3.26554
 Alpha virt. eigenvalues --    3.27294   3.28670   3.30786   3.39921   3.40263
 Alpha virt. eigenvalues --    3.41116   3.46880   3.47043   3.52253   3.52475
 Alpha virt. eigenvalues --    3.52727   3.53357   3.54473   3.58354   3.59215
 Alpha virt. eigenvalues --    3.64760   3.66322   3.68767   3.72536   3.80164
 Alpha virt. eigenvalues --    3.86629   3.87000   3.88320   3.90636   3.94374
 Alpha virt. eigenvalues --    3.97109   3.98225   4.02805   4.04551   4.09382
 Alpha virt. eigenvalues --    4.11981   4.14091   4.16075   4.16269   4.20212
 Alpha virt. eigenvalues --    4.23403   4.29179   4.29852   4.30823   4.32041
 Alpha virt. eigenvalues --    4.35746   4.39744   4.41640   4.42978   4.43146
 Alpha virt. eigenvalues --    4.54262   4.56866   4.67737   4.91467   4.96500
 Alpha virt. eigenvalues --    5.02057   5.07820   5.11098   5.14391   5.20142
 Alpha virt. eigenvalues --    5.21456   5.23270   5.29014   5.36492   5.44567
 Alpha virt. eigenvalues --    5.44688   5.50003   5.52137   5.55841   5.56300
 Alpha virt. eigenvalues --    5.60142   5.60943   5.67656   5.74288   5.80172
 Alpha virt. eigenvalues --    6.00208   6.10211   6.38738   6.46182   6.69542
 Alpha virt. eigenvalues --    6.82698   6.95583   7.07633   7.11274   7.17029
 Alpha virt. eigenvalues --    7.19013   7.25247   7.31205   7.54510   7.67126
 Alpha virt. eigenvalues --    7.77332   7.83508  24.25828  24.43531  24.47929
 Alpha virt. eigenvalues --   24.86049  50.17696  50.31491
  Beta  occ. eigenvalues --  -19.67256 -19.61676 -10.67333 -10.59190 -10.55980
  Beta  occ. eigenvalues --  -10.53880  -1.24287  -1.14798  -0.89036  -0.81780
  Beta  occ. eigenvalues --   -0.70018  -0.64401  -0.59480  -0.58064  -0.56625
  Beta  occ. eigenvalues --   -0.51305  -0.50693  -0.45988  -0.45101  -0.44554
  Beta  occ. eigenvalues --   -0.43283  -0.38273  -0.36111
  Beta virt. eigenvalues --   -0.02828   0.00930   0.02362   0.03670   0.04133
  Beta virt. eigenvalues --    0.04836   0.04915   0.05779   0.07710   0.08157
  Beta virt. eigenvalues --    0.08410   0.09586   0.09940   0.12085   0.12323
  Beta virt. eigenvalues --    0.14229   0.14969   0.18211   0.18878   0.20152
  Beta virt. eigenvalues --    0.21684   0.22510   0.23124   0.23402   0.23843
  Beta virt. eigenvalues --    0.26136   0.27604   0.28017   0.29522   0.30117
  Beta virt. eigenvalues --    0.30343   0.32027   0.33541   0.34169   0.37033
  Beta virt. eigenvalues --    0.39691   0.41168   0.44019   0.46959   0.48154
  Beta virt. eigenvalues --    0.49214   0.50625   0.53557   0.54014   0.54125
  Beta virt. eigenvalues --    0.54914   0.55477   0.56460   0.57717   0.59279
  Beta virt. eigenvalues --    0.61408   0.63626   0.64266   0.64972   0.65909
  Beta virt. eigenvalues --    0.66716   0.68062   0.70157   0.70871   0.75531
  Beta virt. eigenvalues --    0.77778   0.79347   0.81450   0.85925   0.88210
  Beta virt. eigenvalues --    0.89322   0.90716   0.93465   0.93985   0.97946
  Beta virt. eigenvalues --    1.00545   1.03385   1.04976   1.05351   1.06781
  Beta virt. eigenvalues --    1.09654   1.10317   1.12708   1.13389   1.14403
  Beta virt. eigenvalues --    1.18683   1.18954   1.20297   1.21835   1.22285
  Beta virt. eigenvalues --    1.25199   1.25718   1.26315   1.27509   1.33372
  Beta virt. eigenvalues --    1.34403   1.35958   1.38751   1.40892   1.41135
  Beta virt. eigenvalues --    1.42884   1.43690   1.43989   1.47030   1.47659
  Beta virt. eigenvalues --    1.51315   1.54771   1.57995   1.58476   1.61170
  Beta virt. eigenvalues --    1.65435   1.67653   1.67951   1.72748   1.78584
  Beta virt. eigenvalues --    1.85346   1.86659   1.92842   2.05777   2.09623
  Beta virt. eigenvalues --    2.12131   2.32775   2.35365   2.39098   2.44639
  Beta virt. eigenvalues --    2.49937   2.56210   2.57045   2.57480   2.68933
  Beta virt. eigenvalues --    2.73471   2.76717   2.77365   2.77759   2.79462
  Beta virt. eigenvalues --    2.82928   2.85100   2.91208   2.95934   2.96239
  Beta virt. eigenvalues --    2.99190   3.00699   3.01648   3.04078   3.05551
  Beta virt. eigenvalues --    3.09448   3.09996   3.10780   3.13699   3.15826
  Beta virt. eigenvalues --    3.17799   3.21420   3.21966   3.25597   3.26914
  Beta virt. eigenvalues --    3.28887   3.29926   3.31251   3.35881   3.40396
  Beta virt. eigenvalues --    3.41711   3.42732   3.47503   3.48913   3.52748
  Beta virt. eigenvalues --    3.53169   3.53463   3.53757   3.58796   3.59287
  Beta virt. eigenvalues --    3.59590   3.65020   3.67383   3.70330   3.73676
  Beta virt. eigenvalues --    3.81050   3.87002   3.87243   3.89319   3.90976
  Beta virt. eigenvalues --    3.94498   3.97234   4.00187   4.02924   4.06724
  Beta virt. eigenvalues --    4.11105   4.12476   4.16684   4.16770   4.19403
  Beta virt. eigenvalues --    4.22386   4.24898   4.29772   4.30961   4.31027
  Beta virt. eigenvalues --    4.33411   4.36026   4.39998   4.43151   4.43435
  Beta virt. eigenvalues --    4.44374   4.56485   4.59331   4.68978   4.91876
  Beta virt. eigenvalues --    4.99416   5.05382   5.07815   5.12322   5.14410
  Beta virt. eigenvalues --    5.20124   5.23126   5.23308   5.29396   5.36688
  Beta virt. eigenvalues --    5.44619   5.47616   5.50333   5.54161   5.56271
  Beta virt. eigenvalues --    5.59986   5.60572   5.62980   5.68117   5.74283
  Beta virt. eigenvalues --    5.80411   6.00217   6.10303   6.38775   6.46188
  Beta virt. eigenvalues --    6.69557   6.82667   6.95561   7.07666   7.11295
  Beta virt. eigenvalues --    7.17045   7.19014   7.25233   7.31210   7.54509
  Beta virt. eigenvalues --    7.67119   7.77327   7.83522  24.26827  24.43549
  Beta virt. eigenvalues --   24.48537  24.86073  50.17687  50.31498
          Condensed to atoms (all electrons):
               1          2          3          4          5          6
     1  O    8.226101  -0.090065  -0.193781   0.147062   0.201623   0.005798
     2  O   -0.090065   8.187281   0.019816  -0.033129   0.357572  -0.032622
     3  C   -0.193781   0.019816   5.556886  -0.051675  -0.139108   0.044323
     4  C    0.147062  -0.033129  -0.051675   4.963230  -0.106982  -0.014874
     5  C    0.201623   0.357572  -0.139108  -0.106982   5.387616   0.149594
     6  C    0.005798  -0.032622   0.044323  -0.014874   0.149594   5.639759
     7  H    0.001973  -0.000704   0.438103   0.000919  -0.036318  -0.054658
     8  H    0.001553  -0.000035   0.440318   0.001398  -0.035195  -0.055603
     9  H   -0.035593  -0.004041  -0.001946   0.430541   0.002127  -0.000392
    10  H   -0.035442  -0.004079  -0.001619   0.430040   0.002082  -0.000389
    11  H   -0.059192   0.003653   0.002212   0.420107   0.017790   0.000529
    12  H   -0.000479   0.000696  -0.063300   0.000477   0.026135   0.415426
    13  H   -0.000381   0.001572  -0.035854  -0.000939  -0.003828   0.411127
               7          8          9         10         11         12
     1  O    0.001973   0.001553  -0.035593  -0.035442  -0.059192  -0.000479
     2  O   -0.000704  -0.000035  -0.004041  -0.004079   0.003653   0.000696
     3  C    0.438103   0.440318  -0.001946  -0.001619   0.002212  -0.063300
     4  C    0.000919   0.001398   0.430541   0.430040   0.420107   0.000477
     5  C   -0.036318  -0.035195   0.002127   0.002082   0.017790   0.026135
     6  C   -0.054658  -0.055603  -0.000392  -0.000389   0.000529   0.415426
     7  H    0.548507  -0.050926  -0.000112   0.000183   0.000016  -0.001869
     8  H   -0.050926   0.545910   0.000180  -0.000114   0.000008  -0.001977
     9  H   -0.000112   0.000180   0.531678  -0.037348  -0.024800  -0.000001
    10  H    0.000183  -0.000114  -0.037348   0.531884  -0.024815  -0.000001
    11  H    0.000016   0.000008  -0.024800  -0.024815   0.532043  -0.000001
    12  H   -0.001869  -0.001977  -0.000001  -0.000001  -0.000001   0.462892
    13  H    0.002769   0.002870  -0.000006  -0.000006   0.000002  -0.019601
              13
     1  O   -0.000381
     2  O    0.001572
     3  C   -0.035854
     4  C   -0.000939
     5  C   -0.003828
     6  C    0.411127
     7  H    0.002769
     8  H    0.002870
     9  H   -0.000006
    10  H   -0.000006
    11  H    0.000002
    12  H   -0.019601
    13  H    0.432624
          Atomic-Atomic Spin Densities.
               1          2          3          4          5          6
     1  O    0.005163  -0.000847   0.003060   0.001214  -0.005501   0.000392
     2  O   -0.000847  -0.007189   0.002257  -0.000507   0.002612  -0.000398
     3  C    0.003060   0.002257  -0.080194  -0.000919  -0.000655  -0.051256
     4  C    0.001214  -0.000507  -0.000919   0.000838   0.000775  -0.002255
     5  C   -0.005501   0.002612  -0.000655   0.000775   0.019014  -0.003019
     6  C    0.000392  -0.000398  -0.051256  -0.002255  -0.003019   1.196780
     7  H   -0.000729  -0.000278   0.016352  -0.000064   0.005486  -0.033993
     8  H   -0.000844  -0.000009   0.013033   0.000115   0.007843  -0.032523
     9  H   -0.000201   0.000030   0.000203  -0.000219   0.000051  -0.000062
    10  H   -0.000089  -0.000010   0.000166  -0.000303   0.000089  -0.000051
    11  H   -0.000090  -0.000038   0.000037   0.000053  -0.000054   0.000031
    12  H   -0.000007  -0.000183  -0.003313   0.000123   0.005701  -0.000421
    13  H    0.000291   0.002054   0.012455  -0.000031  -0.005509  -0.010555
               7          8          9         10         11         12
     1  O   -0.000729  -0.000844  -0.000201  -0.000089  -0.000090  -0.000007
     2  O   -0.000278  -0.000009   0.000030  -0.000010  -0.000038  -0.000183
     3  C    0.016352   0.013033   0.000203   0.000166   0.000037  -0.003313
     4  C   -0.000064   0.000115  -0.000219  -0.000303   0.000053   0.000123
     5  C    0.005486   0.007843   0.000051   0.000089  -0.000054   0.005701
     6  C   -0.033993  -0.032523  -0.000062  -0.000051   0.000031  -0.000421
     7  H    0.078145  -0.023498  -0.000046   0.000082   0.000004   0.000224
     8  H   -0.023498   0.075736   0.000081  -0.000045   0.000004   0.000347
     9  H   -0.000046   0.000081   0.000806  -0.000305  -0.000013   0.000000
    10  H    0.000082  -0.000045  -0.000305   0.000804  -0.000003   0.000000
    11  H    0.000004   0.000004  -0.000013  -0.000003   0.000009  -0.000000
    12  H    0.000224   0.000347   0.000000   0.000000  -0.000000  -0.048009
    13  H   -0.000152  -0.000156  -0.000001  -0.000001  -0.000000   0.004567
              13
     1  O    0.000291
     2  O    0.002054
     3  C    0.012455
     4  C   -0.000031
     5  C   -0.005509
     6  C   -0.010555
     7  H   -0.000152
     8  H   -0.000156
     9  H   -0.000001
    10  H   -0.000001
    11  H   -0.000000
    12  H    0.004567
    13  H   -0.043064
 Mulliken charges and spin densities:
               1          2
     1  O   -0.169177   0.001811
     2  O   -0.405914  -0.002507
     3  C   -0.014375  -0.088775
     4  C   -0.186174  -0.001180
     5  C    0.176892   0.026834
     6  C   -0.508019   1.062671
     7  H    0.152117   0.041533
     8  H    0.151614   0.040084
     9  H    0.139712   0.000324
    10  H    0.139624   0.000335
    11  H    0.132446  -0.000059
    12  H    0.181603  -0.040970
    13  H    0.209651  -0.040102
 Sum of Mulliken charges =  -0.00000   1.00000
 Mulliken charges and spin densities with hydrogens summed into heavy atoms:
               1          2
     1  O   -0.169177   0.001811
     2  O   -0.405914  -0.002507
     3  C    0.289356  -0.007158
     4  C    0.225608  -0.000579
     5  C    0.176892   0.026834
     6  C   -0.116765   0.981599
 APT charges:
               1
     1  O   -0.035702
     2  O   -0.395046
     3  C   -0.559521
     4  C   -1.229763
     5  C    0.243357
     6  C   -1.094704
     7  H    0.380555
     8  H    0.381377
     9  H    0.357379
    10  H    0.357870
    11  H    0.569158
    12  H    0.692816
    13  H    0.332225
 Sum of APT charges =  -0.00000
 APT charges with hydrogens summed into heavy atoms:
               1
     1  O   -0.035702
     2  O   -0.395046
     3  C    0.202411
     4  C    0.054643
     5  C    0.243357
     6  C   -0.069663
 Electronic spatial extent (au):  <R**2>=            656.8117
 Charge=             -0.0000 electrons
 Dipole moment (field-independent basis, Debye):
    X=             -0.6453    Y=             -1.8237    Z=              0.0119  Tot=              1.9346
 Quadrupole moment (field-independent basis, Debye-Ang):
   XX=            -30.3893   YY=            -40.0522   ZZ=            -36.4473
   XY=             -1.7529   XZ=              0.0322   YZ=             -0.0304
 Traceless Quadrupole moment (field-independent basis, Debye-Ang):
   XX=              5.2403   YY=             -4.4226   ZZ=             -0.8177
   XY=             -1.7529   XZ=              0.0322   YZ=             -0.0304
 Octapole moment (field-independent basis, Debye-Ang**2):
  XXX=            -18.7067  YYY=             -3.4013  ZZZ=              0.1684  XYY=              0.3486
  XXY=             -1.6017  XXZ=             -0.0495  XZZ=             -5.6424  YZZ=             -0.2837
  YYZ=             -0.0611  XYZ=             -0.0105
 Hexadecapole moment (field-independent basis, Debye-Ang**3):
 XXXX=           -622.9335 YYYY=           -161.8955 ZZZZ=            -50.2397 XXXY=             -0.2347
 XXXZ=             -0.1460 YYYX=              3.0752 YYYZ=              0.0965 ZZZX=              0.3135
 ZZZY=             -0.0563 XXYY=           -132.2244 XXZZ=           -128.5364 YYZZ=            -32.9187
 XXYZ=              0.0534 YYXZ=              0.0087 ZZXY=             -3.6947
 N-N= 2.370906858266D+02 E-N=-1.192520746055D+03  KE= 3.059336774302D+02
  Exact polarizability:   0.000   0.000   0.000   0.000   0.000   0.000
 Approx polarizability:  62.827   1.915  67.440  -0.005  -0.016  52.319
                          Isotropic Fermi Contact Couplings
        Atom                 a.u.       MegaHertz       Gauss      10(-4) cm-1
     1  O(17)             -0.00115       0.69565       0.24822       0.23204
     2  O(17)             -0.00156       0.94775       0.33818       0.31613
     3  C(13)             -0.03544     -39.83992     -14.21587     -13.28917
     4  C(13)             -0.00036      -0.40652      -0.14506      -0.13560
     5  C(13)              0.00141       1.58220       0.56457       0.52776
     6  C(13)              0.16621     186.85182      66.67338      62.32706
     7  H(1)               0.02178      97.34089      34.73365      32.46942
     8  H(1)               0.02064      92.23972      32.91343      30.76786
     9  H(1)               0.00008       0.34483       0.12304       0.11502
    10  H(1)               0.00008       0.36284       0.12947       0.12103
    11  H(1)              -0.00000      -0.01969      -0.00703      -0.00657
    12  H(1)              -0.01633     -73.00485     -26.04995     -24.35180
    13  H(1)              -0.01671     -74.70116     -26.65523     -24.91762
 --------------------------------------------------------
       Center         ----  Spin Dipole Couplings  ----
                      3XX-RR        3YY-RR        3ZZ-RR
 --------------------------------------------------------
     1   Atom       -0.006535     -0.012024      0.018559
     2   Atom        0.008073      0.004174     -0.012247
     3   Atom        0.000349     -0.009062      0.008713
     4   Atom        0.002316     -0.001130     -0.001186
     5   Atom        0.011048     -0.009607     -0.001442
     6   Atom       -0.555184     -0.553748      1.108933
     7   Atom        0.001582      0.004687     -0.006269
     8   Atom        0.001552      0.005508     -0.007060
     9   Atom        0.002086     -0.001037     -0.001049
    10   Atom        0.002072     -0.001033     -0.001039
    11   Atom        0.001701     -0.000871     -0.000829
    12   Atom        0.048458     -0.044386     -0.004073
    13   Atom       -0.072811      0.076248     -0.003437
 --------------------------------------------------------
                        XY            XZ            YZ
 --------------------------------------------------------
     1   Atom        0.000942     -0.000806     -0.000116
     2   Atom       -0.006460     -0.000188      0.000056
     3   Atom        0.010283     -0.000099     -0.000143
     4   Atom       -0.000036     -0.000022      0.000001
     5   Atom       -0.000186     -0.000672      0.000261
     6   Atom       -0.004242      0.023424      0.003082
     7   Atom        0.011704     -0.005261     -0.007744
     8   Atom        0.011962      0.004720      0.007064
     9   Atom       -0.000511      0.000552     -0.000084
    10   Atom       -0.000503     -0.000558      0.000081
    11   Atom        0.000281      0.000001     -0.000000
    12   Atom       -0.060051     -0.000231      0.000712
    13   Atom       -0.012113      0.000981      0.000422
 --------------------------------------------------------


 ---------------------------------------------------------------------------------
              Anisotropic Spin Dipole Couplings in Principal Axis System
 ---------------------------------------------------------------------------------

       Atom             a.u.   MegaHertz   Gauss  10(-4) cm-1        Axes

              Baa    -0.0122     0.881     0.315     0.294 -0.1647  0.9863 -0.0006
     1 O(17)  Bbb    -0.0064     0.463     0.165     0.155  0.9858  0.1646  0.0326
              Bcc     0.0186    -1.345    -0.480    -0.449 -0.0322 -0.0048  0.9995
 
              Baa    -0.0122     0.886     0.316     0.296  0.0093  0.0003  1.0000
     2 O(17)  Bbb    -0.0006     0.045     0.016     0.015  0.5962  0.8028 -0.0058
              Bcc     0.0129    -0.931    -0.332    -0.311  0.8028 -0.5962 -0.0073
 
              Baa    -0.0157    -2.102    -0.750    -0.701 -0.5403  0.8415  0.0027
     3 C(13)  Bbb     0.0069     0.931     0.332     0.311  0.8382  0.5379  0.0901
              Bcc     0.0087     1.171     0.418     0.391 -0.0743 -0.0510  0.9959
 
              Baa    -0.0012    -0.159    -0.057    -0.053  0.0062 -0.0094  0.9999
     4 C(13)  Bbb    -0.0011    -0.152    -0.054    -0.051  0.0106  0.9999  0.0093
              Bcc     0.0023     0.311     0.111     0.104  0.9999 -0.0106 -0.0063
 
              Baa    -0.0096    -1.290    -0.460    -0.430  0.0080  0.9995 -0.0313
     5 C(13)  Bbb    -0.0015    -0.197    -0.070    -0.066  0.0540  0.0308  0.9981
              Bcc     0.0111     1.488     0.531     0.496  0.9985 -0.0096 -0.0537
 
              Baa    -0.5590   -75.014   -26.767   -25.022  0.7749  0.6320 -0.0120
     6 C(13)  Bbb    -0.5503   -73.840   -26.348   -24.630 -0.6320  0.7750  0.0075
              Bcc     1.1093   148.853    53.114    49.652  0.0141  0.0018  0.9999
 
              Baa    -0.0104    -5.561    -1.984    -1.855 -0.2007  0.5655  0.8000
     7 H(1)   Bbb    -0.0080    -4.279    -1.527    -1.427  0.7702 -0.4135  0.4856
              Bcc     0.0184     9.840     3.511     3.282  0.6054  0.7136 -0.3525
 
              Baa    -0.0103    -5.517    -1.968    -1.840  0.1799 -0.5106  0.8408
     8 H(1)   Bbb    -0.0081    -4.328    -1.544    -1.444  0.7753 -0.4525 -0.4406
              Bcc     0.0185     9.845     3.513     3.284  0.6054  0.7312  0.3145
 
              Baa    -0.0011    -0.610    -0.218    -0.204 -0.1853 -0.1174  0.9756
     9 H(1)   Bbb    -0.0011    -0.596    -0.213    -0.199  0.1318  0.9809  0.1430
              Bcc     0.0023     1.207     0.431     0.402  0.9738 -0.1551  0.1663
 
              Baa    -0.0011    -0.607    -0.217    -0.202  0.2039  0.2509  0.9463
    10 H(1)   Bbb    -0.0011    -0.592    -0.211    -0.198  0.1027  0.9558 -0.2756
              Bcc     0.0022     1.199     0.428     0.400  0.9736 -0.1534 -0.1691
 
              Baa    -0.0009    -0.481    -0.172    -0.160 -0.1072  0.9942  0.0033
    11 H(1)   Bbb    -0.0008    -0.443    -0.158    -0.148  0.0001 -0.0033  1.0000
              Bcc     0.0017     0.923     0.330     0.308  0.9942  0.1072  0.0002
 
              Baa    -0.0739   -39.414   -14.064   -13.147  0.4406  0.8976 -0.0077
    12 H(1)   Bbb    -0.0041    -2.173    -0.775    -0.725  0.0091  0.0041  1.0000
              Bcc     0.0779    41.586    14.839    13.872  0.8976 -0.4407 -0.0064
 
              Baa    -0.0738   -39.378   -14.051   -13.135  0.9967  0.0805 -0.0144
    13 H(1)   Bbb    -0.0034    -1.827    -0.652    -0.609  0.0147 -0.0031  0.9999
              Bcc     0.0772    41.205    14.703    13.745 -0.0804  0.9968  0.0042
 

 ---------------------------------------------------------------------------------

 No NMR shielding tensors so no spin-rotation constants.
 Leave Link  601 at Wed Mar 13 04:27:39 2019, MaxMem=   671088640 cpu:               9.4 elap:               0.5
 (Enter /shared/centos7/gaussian/g16/l701.exe)
 SCFChk:  SCF convergence  6.88D-09 required  1.00D-08
 ... and contract with generalized density number  0.
 Compute integral second derivatives.
 Entering OneElI...
 Calculate overlap and kinetic energy integrals
    NBasis = 297  MinDer = 2  MaxDer = 2
 Requested accuracy = 0.1000D-12
 PrmmSu-InSpLW:  IPartL=    0 NPrtUS=   20 NPrtUL=    1 DoSpLW=F IThBeg=    0 IThEnd=   19 NThAct=   20.
 PrsmSu:  NPrtUS=  20 ThrOK=T IAlg=1 NPAlg=1 LenDen=           0 ISkipM=0 DoSpLW=F IThBeg=    0 IThEnd=   19.
 Prism:   IPart=     0 DynPar=F LinDyn=F Incr=           1.
 PRISM was handed    33455649 working-precision words and  3455 shell-pairs
 PRISM was handed    33455649 working-precision words and  3455 shell-pairs
 PRISM was handed    33455649 working-precision words and  3455 shell-pairs
 PRISM was handed    33455649 working-precision words and  3455 shell-pairs
 PRISM was handed    33455649 working-precision words and  3455 shell-pairs
 PRISM was handed    33455649 working-precision words and  3455 shell-pairs
 PRISM was handed    33455649 working-precision words and  3455 shell-pairs
 PRISM was handed    33455649 working-precision words and  3455 shell-pairs
 PRISM was handed    33455649 working-precision words and  3455 shell-pairs
 PRISM was handed    33455649 working-precision words and  3455 shell-pairs
 PRISM was handed    33455649 working-precision words and  3455 shell-pairs
 PRISM was handed    33455649 working-precision words and  3455 shell-pairs
 PRISM was handed    33455649 working-precision words and  3455 shell-pairs
 PRISM was handed    33455649 working-precision words and  3455 shell-pairs
 PRISM was handed    33455649 working-precision words and  3455 shell-pairs
 PRISM was handed    33455649 working-precision words and  3455 shell-pairs
 PRISM was handed    33455649 working-precision words and  3455 shell-pairs
 PRISM was handed    33455649 working-precision words and  3455 shell-pairs
 PRISM was handed    33455649 working-precision words and  3455 shell-pairs
 PRISM was handed    33455649 working-precision words and  3455 shell-pairs
 IPart=  4 NShTot=         189 NBatch=          46 AvBLen=         4.1
 IPart=  1 NShTot=         201 NBatch=          56 AvBLen=         3.6
 IPart=  6 NShTot=         181 NBatch=          39 AvBLen=         4.6
 IPart=  8 NShTot=         174 NBatch=          34 AvBLen=         5.1
 IPart=  3 NShTot=         195 NBatch=          50 AvBLen=         3.9
 IPart=  2 NShTot=         198 NBatch=          53 AvBLen=         3.7
 IPart= 11 NShTot=         167 NBatch=          32 AvBLen=         5.2
 IPart= 12 NShTot=         163 NBatch=          31 AvBLen=         5.3
 IPart=  7 NShTot=         175 NBatch=          34 AvBLen=         5.1
 IPart= 10 NShTot=         167 NBatch=          32 AvBLen=         5.2
 IPart=  9 NShTot=         169 NBatch=          32 AvBLen=         5.3
 IPart= 18 NShTot=         151 NBatch=          30 AvBLen=         5.0
 IPart= 15 NShTot=         157 NBatch=          30 AvBLen=         5.2
 IPart= 14 NShTot=         159 NBatch=          30 AvBLen=         5.3
 IPart= 16 NShTot=         154 NBatch=          30 AvBLen=         5.1
 IPart= 13 NShTot=         163 NBatch=          31 AvBLen=         5.3
 IPart=  0 NShTot=         207 NBatch=          60 AvBLen=         3.5
 IPart= 19 NShTot=         148 NBatch=          30 AvBLen=         4.9
 IPart=  5 NShTot=         185 NBatch=          42 AvBLen=         4.4
 IPart= 17 NShTot=         152 NBatch=          30 AvBLen=         5.1
 PrSmSu:  NxtVal=             21.
 Entering OneElI...
 Calculate potential energy integrals
    NBasis = 297  MinDer = 2  MaxDer = 2
 Requested accuracy = 0.1000D-12
 PrmmSu-InSpLW:  IPartL=    0 NPrtUS=   20 NPrtUL=    1 DoSpLW=F IThBeg=    0 IThEnd=   19 NThAct=   20.
 PrsmSu:  NPrtUS=  20 ThrOK=T IAlg=1 NPAlg=1 LenDen=           0 ISkipM=0 DoSpLW=F IThBeg=    0 IThEnd=   19.
 Prism:   IPart=     0 DynPar=F LinDyn=F Incr=          20.
 PRISM was handed    33469955 working-precision words and  3221 shell-pairs
 PRISM was handed    33469955 working-precision words and  3221 shell-pairs
 PRISM was handed    33469955 working-precision words and  3221 shell-pairs
 PRISM was handed    33469955 working-precision words and  3221 shell-pairs
 PRISM was handed    33469955 working-precision words and  3221 shell-pairs
 PRISM was handed    33469955 working-precision words and  3221 shell-pairs
 PRISM was handed    33469955 working-precision words and  3221 shell-pairs
 PRISM was handed    33469955 working-precision words and  3221 shell-pairs
 PRISM was handed    33469955 working-precision words and  3221 shell-pairs
 PRISM was handed    33469955 working-precision words and  3221 shell-pairs
 PRISM was handed    33469955 working-precision words and  3221 shell-pairs
 PRISM was handed    33469955 working-precision words and  3221 shell-pairs
 PRISM was handed    33469955 working-precision words and  3221 shell-pairs
 PRISM was handed    33469955 working-precision words and  3221 shell-pairs
 PRISM was handed    33469955 working-precision words and  3221 shell-pairs
 PRISM was handed    33469955 working-precision words and  3221 shell-pairs
 PRISM was handed    33469955 working-precision words and  3221 shell-pairs
 PRISM was handed    33469955 working-precision words and  3221 shell-pairs
 PRISM was handed    33469955 working-precision words and  3221 shell-pairs
 PRISM was handed    33469955 working-precision words and  3221 shell-pairs
 IPart=  8 NShTot=        2041 NBatch=         157 AvBLen=        13.0
 IPart=  6 NShTot=        2132 NBatch=         164 AvBLen=        13.0
 IPart=  4 NShTot=        2262 NBatch=         174 AvBLen=        13.0
 IPart=  3 NShTot=        2353 NBatch=         181 AvBLen=        13.0
 IPart=  1 NShTot=        2483 NBatch=         191 AvBLen=        13.0
 IPart= 14 NShTot=        1937 NBatch=         149 AvBLen=        13.0
 IPart= 12 NShTot=        2002 NBatch=         154 AvBLen=        13.0
 IPart= 15 NShTot=        1898 NBatch=         146 AvBLen=        13.0
 IPart= 11 NShTot=        2002 NBatch=         154 AvBLen=        13.0
 IPart=  0 NShTot=        2587 NBatch=         199 AvBLen=        13.0
 IPart=  5 NShTot=        2223 NBatch=         171 AvBLen=        13.0
 IPart= 10 NShTot=        2002 NBatch=         154 AvBLen=        13.0
 IPart= 13 NShTot=        1976 NBatch=         152 AvBLen=        13.0
 IPart=  2 NShTot=        2405 NBatch=         185 AvBLen=        13.0
 IPart=  9 NShTot=        2015 NBatch=         155 AvBLen=        13.0
 IPart= 16 NShTot=        1872 NBatch=         144 AvBLen=        13.0
 IPart=  7 NShTot=        2080 NBatch=         160 AvBLen=        13.0
 IPart= 17 NShTot=        1872 NBatch=         144 AvBLen=        13.0
 IPart= 19 NShTot=        1859 NBatch=         143 AvBLen=        13.0
 IPart= 18 NShTot=        1872 NBatch=         144 AvBLen=        13.0
 PrSmSu:  NxtVal=            401.
 Polarizability after L701:
                1             2             3 
      1  0.000000D+00
      2  0.000000D+00  0.000000D+00
      3  0.000000D+00  0.000000D+00  0.000000D+00
 Dipole Derivatives after L701:
                 1             2             3             4             5 
      1   0.338381D+00 -0.259746D+00  0.708823D-03 -0.349045D+00  0.175694D-01
      2  -0.385155D-03 -0.179095D+00 -0.266157D-03  0.426699D-02 -0.260125D+00
      3   0.110600D-02  0.283477D-03 -0.266391D+00  0.191378D-03  0.221099D-02
                 6             7             8             9            10 
      1   0.108851D-03  0.247068D+00  0.120265D+01 -0.312525D-01 -0.205601D+01
      2   0.318426D-03  0.316166D+00 -0.100715D+01 -0.249592D-02 -0.172732D+00
      3  -0.575969D+00 -0.545941D-02 -0.112002D-01 -0.918480D+00 -0.292172D-02
                11            12            13            14            15 
      1   0.552638D+00 -0.373955D-02 -0.361092D-01 -0.198816D+00  0.152879D-02
      2  -0.752351D+00 -0.933703D-03 -0.255951D+00  0.125459D+00  0.159137D-02
      3   0.100435D-02 -0.880929D+00 -0.296309D-03  0.454438D-03  0.640721D+00
                16            17            18            19            20 
      1  -0.207771D+01 -0.709520D+00  0.302976D-01  0.159149D+00 -0.348806D+00
      2   0.134206D+00 -0.955291D+00 -0.383823D-03 -0.117548D-01  0.505272D+00
      3   0.122757D-01  0.420111D-02 -0.251111D+00  0.278159D-01 -0.236452D+00
                21            22            23            24            25 
      1   0.402905D+00  0.153199D+00 -0.369773D+00 -0.386202D+00  0.310396D+00
      2  -0.419635D+00 -0.645485D-02  0.538041D+00  0.418666D+00 -0.376115D-01
      3   0.477244D+00 -0.239615D-01  0.240752D+00  0.452891D+00  0.258328D-01
                26            27            28            29            30 
      1  -0.680375D+00  0.826668D+00  0.315962D+00 -0.674448D+00 -0.832744D+00
      2   0.283406D+00 -0.205898D+00 -0.388678D-01  0.279684D+00  0.204159D+00
      3  -0.242090D+00  0.478335D+00 -0.276379D-01  0.237404D+00  0.477963D+00
                31            32            33            34            35 
      1   0.116831D+01  0.981658D+00  0.779326D-02  0.173314D+01 -0.746849D+00
      2   0.264062D+00  0.428241D+00  0.223457D-02 -0.150701D+00  0.228270D+00
      3   0.346328D-02  0.360941D-02  0.110924D+00 -0.104567D-01  0.467274D-02
                36            37            38            39 
      1  -0.173649D-01  0.932709D-01  0.123382D+01  0.129388D-02
      2   0.159981D-02 -0.442434D-01  0.765640D+00  0.104388D-02
      3   0.117040D+00  0.484172D-04 -0.484962D-02  0.137763D+00
 Hessian after L701:
                1             2             3             4             5 
      1  0.144639D+01
      2 -0.297231D+01  0.111704D+02
      3 -0.647912D-01 -0.333947D-01  0.167217D+02
      4  0.437081D+00  0.653530D+00  0.276773D-02  0.147337D+02
      5  0.716518D+00  0.631851D-01  0.244850D-02  0.635413D+00 -0.650685D+00
      6  0.297789D-02  0.250713D-02  0.142901D+00 -0.112658D-01 -0.604653D-01
      7  0.410449D+00 -0.314407D+00  0.159614D-01  0.355055D+00 -0.714342D+00
      8 -0.117541D+00  0.129365D+00  0.841534D-03 -0.567057D+00  0.174781D+00
      9  0.951107D-02  0.530581D-03  0.178035D+00 -0.563576D-02  0.757284D-02
     10 -0.690147D+00 -0.285070D+01  0.768838D-02  0.331193D+00  0.438795D+00
     11 -0.281453D+01 -0.525380D+01 -0.348748D-02  0.538048D+00 -0.567719D-03
     12  0.776506D-02 -0.322496D-02 -0.668768D+01  0.412805D-02  0.286204D-02
     13 -0.198540D+01  0.511519D+01  0.442431D-01 -0.166560D+02 -0.812307D+00
     14  0.502674D+01 -0.612728D+01  0.353687D-01 -0.904325D+00  0.506785D+00
     15  0.459860D-01  0.350973D-01 -0.107294D+02  0.825433D-02  0.500799D-01
     16  0.349692D+00  0.183564D+00 -0.882050D-02  0.402374D+00 -0.324885D+00
     17  0.134808D+00 -0.139054D+00 -0.105263D-02 -0.383429D+00 -0.970634D-01
     18 -0.505995D-02 -0.111358D-02 -0.175593D+00  0.138940D-02 -0.194196D-02
     19  0.844974D-01 -0.450794D-01  0.795118D-01 -0.267182D-01 -0.315077D-01
     20 -0.101819D+00 -0.391975D-01 -0.444462D-01 -0.427898D-01  0.830401D-01
     21  0.125636D+00 -0.370483D-01 -0.638835D-02  0.357347D-01 -0.887209D-01
     22  0.816422D-01 -0.460083D-01 -0.752109D-01 -0.280069D-01 -0.337436D-01
     23 -0.107148D+00 -0.359871D-01  0.447119D-01 -0.461048D-01  0.929079D-01
     24 -0.120294D+00  0.374437D-01 -0.112050D-01 -0.341375D-01  0.867373D-01
     25 -0.527648D-01  0.775441D-01  0.835580D-01  0.973950D-01  0.547100D-01
     26  0.175490D-01  0.465553D-01 -0.155289D+00 -0.175991D-02 -0.632374D-01
     27  0.103565D+00 -0.153430D+00  0.259981D+00  0.863919D-01  0.379861D-01
     28 -0.513807D-01  0.771909D-01 -0.850219D-01  0.979617D-01  0.552359D-01
     29  0.174786D-01  0.434368D-01  0.153499D+00 -0.912635D-03 -0.627792D-01
     30 -0.105470D+00  0.152018D+00  0.261030D+00 -0.855305D-01 -0.378954D-01
     31 -0.873462D-01  0.103245D+00  0.220795D-03  0.759533D-01  0.930690D-01
     32  0.159754D+00  0.140464D+00  0.796516D-03  0.735735D-01  0.394801D-01
     33  0.417148D-03  0.584796D-03  0.732177D-01  0.647470D-03  0.602988D-03
     34  0.403276D-01  0.734612D-03 -0.193070D-03  0.667204D-01 -0.541356D-01
     35 -0.137096D-01 -0.836583D-02  0.268046D-04 -0.396310D-01  0.722905D-02
     36 -0.318921D-03 -0.927382D-05 -0.104539D-01 -0.807447D-03  0.481856D-03
     37  0.169520D-01  0.174999D-01  0.864577D-04  0.113262D+00 -0.228198D-01
     38  0.542066D-01  0.102376D-01 -0.226674D-04  0.854445D-01 -0.930756D-01
     39  0.759291D-04  0.403843D-04 -0.161532D-01 -0.193655D-02  0.252058D-03
                6             7             8             9            10 
      6  0.192791D+02
      7 -0.786359D-02  0.110790D+02
      8  0.575981D-02  0.102746D+01  0.144428D+02
      9 -0.271061D+00  0.230071D-01  0.102282D-01  0.162791D+02
     10  0.394633D-02  0.162344D+00 -0.428853D-01  0.778366D-03  0.988280D+01
     11  0.328614D-02 -0.106147D-01 -0.556686D-01 -0.622316D-03  0.169104D+01
     12 -0.381074D+00  0.130847D-02 -0.839648D-03 -0.723370D-01 -0.112205D-01
     13  0.976647D-02 -0.167770D+01 -0.224638D+01  0.130459D-01  0.515516D+00
     14  0.498743D-01 -0.222520D+01 -0.486781D+01 -0.109336D-01  0.519205D-01
     15 -0.183023D+02  0.124786D-01 -0.105168D-01 -0.584062D+01  0.176252D-02
     16  0.243034D-02 -0.203984D+01  0.215571D+01 -0.602596D-01  0.133485D-01
     17 -0.318735D-03  0.212247D+01 -0.417095D+01 -0.365385D-01 -0.474410D-02
     18 -0.264544D+00 -0.602914D-01 -0.368270D-01 -0.557892D+01  0.575469D-04
     19  0.287488D-01 -0.410180D+01  0.100751D-01 -0.100745D-01  0.176201D-01
     20 -0.661074D-01  0.137765D+00 -0.289998D+01 -0.138560D+01 -0.185936D-01
     21  0.448778D-02 -0.153120D+00 -0.133414D+01 -0.236659D+01  0.128526D-01
     22 -0.275777D-01 -0.412033D+01  0.233878D-01  0.246445D-01  0.195003D-01
     23  0.654899D-01  0.160900D+00 -0.277903D+01  0.141253D+01 -0.209341D-01
     24 -0.355823D-03  0.164154D+00  0.136273D+01 -0.250346D+01 -0.132325D-01
     25  0.172912D-01  0.230381D-01 -0.618734D-02  0.549163D-02 -0.398853D+01
     26 -0.704484D-02 -0.216409D-01 -0.955252D-02 -0.447985D-02 -0.253655D+00
     27 -0.372337D-01  0.252361D-01 -0.115935D-02 -0.600602D-02  0.318832D+00
     28 -0.161350D-01  0.236022D-01 -0.660665D-02 -0.591296D-02 -0.398171D+01
     29  0.678145D-02 -0.216478D-01 -0.981963D-02  0.468971D-02 -0.259664D+00
     30 -0.379482D-01 -0.254422D-01  0.117279D-02 -0.599843D-02 -0.331668D+00
     31  0.643455D-03  0.356883D-01  0.103602D-01 -0.483675D-04 -0.229568D+01
     32  0.475350D-03  0.199898D-01 -0.392203D-02 -0.970344D-04  0.126504D+01
     33 -0.317109D-01  0.190335D-03  0.303622D-04 -0.127372D-01  0.102741D-01
     34 -0.736603D-03 -0.167104D+00 -0.404973D-01  0.401866D-02  0.134596D-01
     35  0.318007D-03 -0.378958D-01  0.147045D+00 -0.326942D-04 -0.272081D-02
     36 -0.215422D-01  0.349311D-02 -0.888062D-04  0.104592D+00 -0.977726D-04
[...]
 ! R2    R(1,5)                  1.3403         -DE/DX =    0.0                 !
 ! R3    R(2,5)                  1.1986         -DE/DX =    0.0                 !
 ! R4    R(3,5)                  1.5098         -DE/DX =    0.0                 !
 ! R5    R(3,6)                  1.4805         -DE/DX =    0.0                 !
 ! R6    R(3,7)                  1.0963         -DE/DX =    0.0                 !
 ! R7    R(3,8)                  1.0963         -DE/DX =    0.0                 !
 ! R8    R(4,9)                  1.0881         -DE/DX =    0.0                 !
 ! R9    R(4,10)                 1.0881         -DE/DX =    0.0                 !
 ! R10   R(4,11)                 1.0847         -DE/DX =    0.0                 !
 ! R11   R(6,12)                 1.0776         -DE/DX =    0.0                 !
 ! R12   R(6,13)                 1.0774         -DE/DX =    0.0                 !
 ! A1    A(4,1,5)              115.316          -DE/DX =    0.0                 !
 ! A2    A(5,3,6)              113.1886         -DE/DX =    0.0                 !
 ! A3    A(5,3,7)              107.1333         -DE/DX =    0.0                 !
 ! A4    A(5,3,8)              107.1335         -DE/DX =    0.0                 !
 ! A5    A(6,3,7)              112.2614         -DE/DX =    0.0                 !
 ! A6    A(6,3,8)              112.2614         -DE/DX =    0.0                 !
 ! A7    A(7,3,8)              104.2908         -DE/DX =    0.0                 !
 ! A8    A(1,4,9)              110.3281         -DE/DX =    0.0                 !
 ! A9    A(1,4,10)             110.3281         -DE/DX =    0.0                 !
 ! A10   A(1,4,11)             105.9721         -DE/DX =    0.0                 !
 ! A11   A(9,4,10)             108.9106         -DE/DX =    0.0                 !
 ! A12   A(9,4,11)             110.6424         -DE/DX =    0.0                 !
 ! A13   A(10,4,11)            110.6424         -DE/DX =    0.0                 !
 ! A14   A(1,5,2)              123.3045         -DE/DX =    0.0                 !
 ! A15   A(1,5,3)              110.8763         -DE/DX =    0.0                 !
 ! A16   A(2,5,3)              125.8192         -DE/DX =    0.0                 !
 ! A17   A(3,6,12)             120.0062         -DE/DX =    0.0                 !
 ! A18   A(3,6,13)             120.0411         -DE/DX =    0.0                 !
 ! A19   A(12,6,13)            119.9527         -DE/DX =    0.0                 !
 ! D1    D(5,1,4,9)             60.1929         -DE/DX =    0.0                 !
 ! D2    D(5,1,4,10)           -60.193          -DE/DX =    0.0                 !
 ! D3    D(5,1,4,11)           180.0            -DE/DX =    0.0                 !
 ! D4    D(4,1,5,2)              0.0            -DE/DX =    0.0                 !
 ! D5    D(4,1,5,3)            179.9999         -DE/DX =    0.0                 !
 ! D6    D(6,3,5,1)            179.9992         -DE/DX =    0.0                 !
 ! D7    D(6,3,5,2)             -0.0009         -DE/DX =    0.0                 !
 ! D8    D(7,3,5,1)            -55.7151         -DE/DX =    0.0                 !
 ! D9    D(7,3,5,2)            124.2848         -DE/DX =    0.0                 !
 ! D10   D(8,3,5,1)             55.7133         -DE/DX =    0.0                 !
 ! D11   D(8,3,5,2)           -124.2868         -DE/DX =    0.0                 !
 ! D12   D(5,3,6,12)          -179.9991         -DE/DX =    0.0                 !
 ! D13   D(5,3,6,13)             0.0013         -DE/DX =    0.0                 !
 ! D14   D(7,3,6,12)            58.5581         -DE/DX =    0.0                 !
 ! D15   D(7,3,6,13)          -121.4415         -DE/DX =    0.0                 !
 ! D16   D(8,3,6,12)           -58.5561         -DE/DX =    0.0                 !
 ! D17   D(8,3,6,13)           121.4443         -DE/DX =    0.0                 !
 --------------------------------------------------------------------------------
 GradGradGradGradGradGradGradGradGradGradGradGradGradGradGradGradGradGrad

 Leave Link  103 at Wed Mar 13 04:39:39 2019, MaxMem=   671088640 cpu:               0.5 elap:               0.1
 (Enter /shared/centos7/gaussian/g16/l9999.exe)

 ----------------------------------------------------------------------

 Electric dipole moment (input orientation):
 (Debye = 10**-18 statcoulomb cm , SI units = C m)
                  (au)            (Debye)         (10**-30 SI)
   Tot        0.761117D+00      0.193457D+01      0.645302D+01
   x          0.253982D+00      0.645557D+00      0.215335D+01
   y         -0.717470D+00     -0.182363D+01     -0.608296D+01
   z         -0.550764D-02     -0.139990D-01     -0.466957D-01

 Dipole polarizability, Alpha (input orientation).
 (esu units = cm**3 , SI units = C**2 m**2 J**-1)
 Alpha(0;0):
               (au)            (10**-24 esu)      (10**-40 SI)
   iso        0.541352D+02      0.802201D+01      0.892569D+01
   aniso      0.208258D+02      0.308606D+01      0.343371D+01
   xx         0.665359D+02      0.985960D+01      0.109703D+02
   yx        -0.134720D+01     -0.199635D+00     -0.222124D+00
   yy         0.531709D+02      0.787912D+01      0.876670D+01
   zx        -0.142781D-01     -0.211580D-02     -0.235414D-02
   zy         0.800335D-01      0.118597D-01      0.131957D-01
   zz         0.426987D+02      0.632730D+01      0.704007D+01

 ----------------------------------------------------------------------

 Dipole orientation:
     8          1.38202786          0.49445827          1.92791211
     8          0.87832405          0.31483038         -2.26262839
     6         -2.56669484         -0.91395619          0.46822558
     6          3.89137680          1.38949579          1.52597331
     6          0.05158464          0.01993256         -0.17452734
     6         -4.12331102         -1.46918581         -1.78923094
     1         -2.34059802         -2.57002645          1.69232533
     1         -3.43968052          0.51140135          1.69230338
     1          3.85991427          3.15465843          0.47165450
     1          4.98409269          0.00287452          0.47163436
     1          4.69356313          1.67560763          3.39037900
     1         -6.03008456         -2.14934196         -1.56925136
     1         -3.35099497         -1.19365387         -3.65270097

 Electric dipole moment (dipole orientation):
 (Debye = 10**-18 statcoulomb cm , SI units = C m)
                  (au)            (Debye)         (10**-30 SI)
   Tot        0.761117D+00      0.193457D+01      0.645302D+01
   x          0.000000D+00      0.000000D+00      0.000000D+00
   y          0.000000D+00      0.000000D+00      0.000000D+00
   z          0.761117D+00      0.193457D+01      0.645302D+01

 Dipole polarizability, Alpha (dipole orientation).
 (esu units = cm**3 , SI units = C**2 m**2 J**-1)
 Alpha(0;0):
               (au)            (10**-24 esu)      (10**-40 SI)
   iso        0.541352D+02      0.802201D+01      0.892569D+01
   aniso      0.208258D+02      0.308606D+01      0.343371D+01
   xx         0.617733D+02      0.915386D+01      0.101850D+02
   yx         0.680376D+01      0.100821D+01      0.112179D+01
   yy         0.451249D+02      0.668682D+01      0.744009D+01
   zx         0.494603D+01      0.732927D+00      0.815491D+00
   zy         0.176412D+01      0.261415D+00      0.290863D+00
   zz         0.555073D+02      0.822534D+01      0.915192D+01

 ----------------------------------------------------------------------

 Test job not archived.
 1\1\GINC-C0165\Freq\UM062X\6-311+G(2df,2p)\C4H7O2(2)\UNDERKOFFLER.C\13
 -Mar-2019\0\\#P Geom=AllCheck Guess=TCheck SCRF=Check Test GenChk UM06
 2X/6-311+G(2df,2p) Freq\\Gaussian input prepared by ASE\\0,2\O,1.07265
 26364,-0.7025203156,-0.0047759157\O,0.065899669,1.2934186593,0.0106130
 32\C,-1.2764531116,-0.7146734023,-0.0044643912\C,2.3306964553,-0.03157
 84985,0.0001238168\C,-0.0032410487,0.0968155737,0.0015022461\C,-2.4995
 131633,0.119585958,0.0020883784\H,-1.2317459769,-1.3793362143,-0.87517
 52815\H,-1.2314573648,-1.3925111753,0.8560156083\H,2.4257051069,0.5870
 843529,0.8902338347\H,2.4254030061,0.600581596,-0.8804842132\H,3.08477
 87365,-0.8112110293,-0.0059476106\H,-3.4705553887,-0.3476232258,-0.001
 3305067\H,-2.4195225561,1.1939357211,0.0102890026\\Version=EM64L-G16Re
 vA.03\State=2-A\HF=-307.0051153\S2=0.755154\S2-1=0.\S2A=0.750021\RMSD=
 2.673e-09\RMSF=2.958e-07\ZeroPoint=0.1042987\Thermal=0.1118077\Dipole=
 0.2539817,-0.7174697,-0.0055076\DipoleDeriv=-1.6895305,0.2402491,0.002
 0715,0.2537141,-0.7093558,-0.0032578,0.0021744,-0.0032549,-0.2878261,-
 0.7287512,-0.1258912,-0.0008929,0.1726266,-1.1262256,-0.006043,0.00138
 35,-0.0059921,-0.3375026,-0.1160291,-0.1434611,-0.0010496,-0.1596168,-
 0.1163539,-0.0019362,-0.001173,-0.0019363,0.1411425,0.7865846,0.053594
 3,0.0003201,0.2226122,0.2928572,0.0001395,0.0016084,0.0001681,0.269585
 9,1.7756008,-0.1223954,-0.001194,-0.4412067,1.4749194,0.0093464,-0.003
 6245,0.0092906,0.2589752,0.0732466,0.0266804,0.0001375,-0.0632694,0.03
 28405,0.0030493,-0.0005475,0.0030325,-0.3648781,-0.0048149,0.0219833,0
 .0197247,0.0283363,0.0337985,-0.0516828,0.0211754,-0.086191,0.0123036,
 -0.0048302,0.0223108,-0.0193825,0.0286745,0.0316947,0.0519687,-0.02073
 76,0.0864784,0.0144199,-0.0104605,0.0135273,0.0368088,-0.0777653,0.031
 47,-0.0588444,-0.0317647,-0.0621403,-0.0463399,-0.0104624,0.0141084,-0
 .03661,-0.0782201,0.0296077,0.0600289,0.0305638,0.0632936,-0.0444756,-
 0.0499292,0.0426497,0.0003483,0.094893,-0.0151489,-0.0007866,0.0007465
 ,-0.0007776,0.085913,-0.0751482,-0.0265317,-0.0001674,-0.0303489,0.029
 59,-0.000897,-0.0001963,-0.0008974,0.1475547,0.0545241,-0.016824,-0.00
 01146,0.0495706,0.0103063,-0.0010849,0.0003916,-0.0010736,0.1511275\Po
 lar=66.5358691,-1.3472039,53.1709363,-0.0142781,0.0800335,42.6987337\Q
 uadrupole=3.8952132,-3.2877916,-0.6074216,1.3040453,0.0091675,-0.02063
 6\PG=C01 [X(C4H7O2)]\NImag=0\\0.54782852,-0.02759624,0.37616397,-0.000
 29062,0.00226344,0.07990814,0.00194182,0.05971924,0.00046020,0.1203062
 7,0.06673287,-0.08923869,-0.00092519,0.03325693,0.89429345,0.00051369,
 -0.00092400,0.03061138,0.00023868,0.00655807,0.03337569,-0.04759484,-0
 .01230566,-0.00008376,0.00381060,-0.01127571,-0.00008221,0.50970934,0.
 01927792,0.01309489,0.00001560,-0.03225983,-0.03802000,-0.00048119,-0.
 02568300,0.53376592,0.00015701,0.00002096,0.01061229,-0.00024229,-0.00
 048499,0.02584349,-0.00019898,0.00035585,0.48806478,-0.18147961,-0.049
 28348,-0.00035614,0.00357760,-0.01741368,-0.00013447,0.00143813,0.0040
 4491,0.00003135,0.51683707,-0.07806929,-0.13066902,-0.00046951,0.00558
 877,-0.00743338,-0.00000927,0.00378652,-0.00230561,-0.00005382,-0.0745
 6078,0.59135679,-0.00057561,-0.00047444,-0.06733246,0.00004090,-0.0000
 0534,-0.00634335,0.00002942,-0.00005391,0.00466714,-0.00055521,-0.0000
 0732,0.59399031,-0.23616457,0.05835961,0.00047340,-0.12321959,-0.07581
 995,-0.00057112,-0.16556257,-0.05191558,-0.00038290,-0.06863444,0.0132
 2170,0.00011287,0.61253759,0.06881512,-0.16132190,-0.00070947,-0.05670
 971,-0.76153241,-0.00516512,-0.04522951,-0.10617864,-0.00010412,0.0067
 1446,0.02451470,0.00017121,0.05965744,1.03068655,0.00055318,-0.0007076
 5,-0.06981165,-0.00042539,-0.00516184,-0.08279301,-0.00033188,-0.00010
 299,-0.09153822,0.00006326,0.00017003,0.00191322,0.00039107,0.00601094
 ,0.24091696,-0.00483663,-0.00199082,-0.00001418,-0.00020078,0.00594526
 ,0.00004549,-0.19691321,0.06739996,0.00053841,-0.00011089,0.00102393,0
 .00000793,-0.03438415,0.01126475,0.00009085,0.59425270,-0.00746758,-0.
 00231210,-0.00002329,-0.00163785,-0.00290106,-0.00002487,0.07695791,-0
 .14172859,-0.00079242,-0.00063710,0.00099012,0.00000366,-0.00758180,0.
 01904761,0.00015979,0.04641127,0.62860825,-0.00005597,-0.00002429,0.00
 091782,-0.00001235,-0.00002617,0.00039717,0.00061102,-0.00079075,-0.03
 952061,-0.00000474,0.00000336,0.00052874,-0.00005244,0.00015700,-0.001
 77793,0.00027126,0.00446435,0.04339546,-0.00168787,0.00085471,0.001984
 77,-0.00350005,-0.00331329,0.00385060,-0.04670045,0.00373943,0.0091020
 3,0.00021086,-0.00000526,0.00039777,0.00397074,-0.01508690,-0.02667637
 ,-0.00205169,0.01924882,0.01624618,0.05081135,0.00149107,0.00087630,0.
 00121481,-0.00319547,-0.00151363,0.00251886,-0.00105257,-0.12898377,-0
 .12812191,-0.00039151,-0.00007466,0.00078196,0.00052077,-0.01422339,-0
 .01761216,0.00623129,-0.01424575,-0.01015087,-0.00559500,0.14776769,-0
 .00004092,0.00062764,0.00068225,0.00023499,0.00158488,-0.00064199,0.00
 209561,-0.12364037,-0.20215830,-0.00042947,-0.00000249,0.00021740,0.00
 085644,-0.00010886,-0.00010404,0.00353080,0.00074677,0.00441280,-0.005
 90236,0.13568316,0.22334429,-0.00168851,0.00088466,-0.00197073,-0.0035
 0131,-0.00325462,-0.00389973,-0.04670341,0.00391926,-0.00909485,0.0002
 1085,0.00000080,-0.00039784,0.00397911,-0.01549139,0.02644232,-0.00205
 876,0.01949337,-0.01594905,0.00111536,0.00001620,-0.00063125,0.0508149
 5,0.00148980,0.00090430,-0.00121195,-0.00319229,-0.00145088,-0.0025302
 5,-0.00097759,-0.13283096,0.12917674,-0.00039828,-0.00006272,-0.000786
 09,0.00053937,-0.01448997,0.01739330,0.00628815,-0.01438436,0.00986245
 ,0.00000140,0.01075208,-0.01542401,-0.00572986,0.15191371,0.00006443,-
 0.00062452,0.00065490,-0.00028266,-0.00159608,-0.00070333,-0.00216174,
 0.12469292,-0.19830514,0.00042346,-0.00000177,0.00020546,-0.00084963,-
 0.00010490,0.00015383,-0.00343378,-0.00103911,0.00455809,0.00062266,0.
 01596881,-0.02503717,0.00587286,-0.13676772,0.21919222,-0.01910885,-0.
 02325192,-0.02858529,-0.00003278,0.00338512,-0.00007992,-0.00044021,0.
 00008931,0.00094404,-0.05002428,-0.00324756,-0.00636471,0.00425523,-0.
 00769151,-0.00172409,-0.00002043,-0.00008672,0.00012335,0.00009798,0.0
 0025394,0.00011161,-0.00011827,-0.00010765,-0.00000876,0.05987630,-0.0
 1266272,-0.01183811,-0.01166382,-0.00024002,0.00105969,0.00019769,-0.0
 0023320,0.00002043,-0.00013653,-0.00855202,-0.13340641,-0.12367141,0.0
 0318181,-0.00133669,0.00028006,-0.00002915,-0.00003934,0.00005632,0.00
 000627,0.00004044,0.00009004,0.00002997,-0.00001898,-0.00002684,0.0177
 0345,0.14425600,-0.00487075,0.00149169,0.00670450,0.00126985,0.0015341
 3,0.00017845,-0.00011941,0.00016330,-0.00038792,-0.01444516,-0.1252241
 6,-0.23921076,0.00156817,-0.00306752,0.00060078,-0.00003225,-0.0000144
 6,0.00000749,0.00000351,0.00001464,0.00000483,0.00007568,0.00009772,-0
 .00003879,0.01612237,0.13804496,0.25054700,-0.01909754,-0.02368562,0.0
 2823635,-0.00003316,0.00338299,0.00013159,-0.00044050,0.00010366,-0.00
 094254,-0.05001723,-0.00330072,0.00625089,0.00425527,-0.00771585,0.001
 60538,-0.00002047,-0.00008484,-0.00012465,-0.00011828,-0.00010780,0.00
 000715,0.00009794,0.00025561,-0.00010777,0.00163053,0.00229320,-0.0004
 8813,0.05986542,-0.01273165,-0.01198894,0.01138324,-0.00022072,0.00108
 589,-0.00018376,-0.00023495,0.00002075,0.00014284,-0.00872826,-0.13722
 477,0.12522927,0.00320525,-0.00137875,-0.00031133,-0.00002966,-0.00003
 870,-0.00005701,0.00003113,-0.00001790,0.00002715,0.00000630,0.0000420
 3,-0.00008948,0.00228028,0.01181865,-0.01521083,0.01789931,0.14848904,
 0.00468601,-0.00176860,0.00684401,-0.00127329,-0.00152144,0.00015265,0
 .00011586,-0.00015711,-0.00038795,0.01424952,0.12678020,-0.23539945,-0
 .00152072,0.00303996,0.00064279,0.00003181,0.00001379,0.00000688,-0.00
 007519,-0.00009737,-0.00003984,-0.00000345,-0.00001416,0.00000328,0.00
 051538,0.01570542,-0.02067402,-0.01578664,-0.13960707,0.24632485,-0.03
 696670,0.02041744,0.00016197,0.00134745,0.00117928,0.00000888,-0.00096
 059,0.00114937,0.00000896,-0.17206256,0.13529195,0.00105153,-0.0015417
 5,-0.00720407,-0.00005462,-0.00031339,-0.00044312,-0.00000333,-0.00002
 518,0.00001669,-0.00002883,-0.00002518,0.00001625,0.00002909,0.0039796
 7,-0.00147314,0.00094604,0.00397290,-0.00145214,-0.00096887,0.20270333
 ,-0.02146061,0.01492798,0.00011685,0.00214564,0.00196823,0.00000932,-0
 .00061058,0.00071459,0.00000390,0.14915039,-0.20538867,-0.00118500,-0.
 00291817,-0.00495961,-0.00003892,-0.00014717,-0.00020490,-0.00000152,0
 .00003225,0.00002091,-0.00001693,0.00003250,0.00002074,0.00001737,0.01
 059594,-0.01059049,0.00214600,0.01088306,-0.01084241,-0.00234970,-0.14
 762492,0.21424153,-0.00015727,0.00010970,0.00007982,0.00001625,0.00000
 949,0.00069788,-0.00000445,0.00000360,0.00021702,0.00115717,-0.0011826
 3,-0.05327628,-0.00002194,-0.00003820,0.00021140,-0.00000107,-0.000001
 46,-0.00000267,0.00001624,0.00000610,-0.00000864,-0.00001575,-0.000005
 66,-0.00000847,0.01896529,-0.01887076,0.00227558,-0.01880210,0.0186712
 2,0.00253426,-0.00115180,0.00129787,0.04728744,-0.00228891,-0.00073914
 ,-0.00000522,0.00009493,-0.00059809,-0.00000458,-0.01468549,-0.0129066
 6,-0.00009629,0.00019474,0.00039875,0.00000301,0.00000106,0.00462292,0
 .00003536,-0.29773101,-0.11811725,-0.00085758,0.00035600,0.00001118,0.
 00037939,0.00035591,0.00001679,-0.00037909,-0.00004956,-0.00004189,-0.
 00000873,-0.00004956,-0.00004202,0.00000811,-0.00013629,-0.00005429,-0
 .00000039,0.31109090,0.00172193,0.00114959,0.00000781,-0.00123169,0.00
 202627,0.00001595,0.01792715,0.01126647,0.00008947,0.00014823,-0.00024
 720,-0.00000183,0.00140298,-0.00613890,-0.00005694,-0.12093365,-0.1159
 9931,-0.00080966,-0.00073814,0.00050583,-0.00041721,-0.00074353,0.0005
 0804,0.00041531,0.00005087,0.00001467,0.00001785,0.00005068,0.00001486
 ,-0.00001760,0.00011026,0.00007084,0.00000057,0.12564414,0.11078709,0.
 00001351,0.00000825,0.00008386,-0.00000941,0.00001586,-0.00003771,0.00
 013885,0.00009405,-0.00081692,0.00000110,-0.00000186,-0.00001139,0.000
 01102,-0.00005755,0.00130892,-0.00087880,-0.00080983,-0.00758983,-0.00
 037189,0.00056499,0.00064824,0.00036077,-0.00056702,0.00064595,-0.0000
 1183,-0.00000518,-0.00000280,0.00001262,0.00000546,-0.00000300,0.00000
 086,0.00000060,-0.00000677,0.00091233,0.00079733,0.00388212,0.00114368
 ,-0.00138279,-0.00001073,-0.00059101,-0.00220711,-0.00001689,0.0050431
 9,0.02304126,0.00017607,-0.00014025,-0.00012881,-0.00000095,0.00050807
 ,0.00405427,0.00003094,-0.05561131,-0.02605510,-0.00019170,-0.00247876
 ,0.00180122,-0.00018317,-0.00247868,0.00179830,0.00021094,-0.00004533,
 0.00001745,-0.00002118,-0.00004532,0.00001712,0.00002146,0.00002827,-0
 .00002404,-0.00000019,0.00284727,-0.02340921,-0.00017914,0.05182017,0.
 00045938,0.00025173,0.00000150,-0.00202299,0.00165653,0.00001859,-0.00
 106880,-0.00883547,-0.00009597,-0.00009287,-0.00004916,-0.00000075,-0.
 00185343,-0.00268859,-0.00002228,-0.02143415,-0.35679185,-0.00268320,0
 .00082459,-0.00090414,0.00085023,0.00083635,-0.00090303,-0.00084400,0.
 00002644,0.00002016,0.00000668,0.00002633,0.00002026,-0.00000631,0.000
 01616,0.00002126,0.00000016,0.00180556,-0.00395825,-0.00004511,0.02247
 744,0.37216055,0.00000331,0.00000182,0.00004514,-0.00001547,0.00001864
 ,-0.00073731,-0.00000831,-0.00009900,0.00371033,-0.00000067,-0.0000007
 5,0.00005142,-0.00001420,-0.00002336,0.00027695,-0.00015648,-0.0026829
 1,-0.00533342,0.00080204,-0.00077103,-0.00131984,-0.00078899,0.0007766
 5,-0.00132084,-0.00000744,0.00000006,-0.00000436,0.00000785,0.00000031
 ,-0.00000446,0.00000012,0.00000017,-0.00000057,0.00001369,-0.00004106,
 0.00189931,0.00016454,0.00282045,0.00273765\\-0.00000012,-0.00000027,0
 .,0.00000032,-0.00000005,0.,-0.00000013,0.00000027,0.00000003,0.000000
 03,-0.00000054,0.,0.00000002,0.00000003,0.,0.00000005,0.00000056,-0.00
 000004,-0.00000030,0.00000026,0.,-0.00000028,0.00000027,0.00000001,0.0
 0000016,-0.00000056,0.,0.00000016,-0.00000057,0.,-0.00000016,-0.000000
 72,0.,-0.00000005,0.00000078,-0.00000006,0.00000030,0.00000053,0.00000
 009\\\@


 THE DIFFICULTY IN SCIENCE IS OFTEN NOT SO MUCH HOW
 TO MAKE A DISCOVERY BUT RATHER TO KNOW ONE HAS MADE IT.

                                                   -- J. D. BERNAL
 Job cpu time:       0 days  2 hours  6 minutes 17.6 seconds.
 Elapsed time:       0 days  0 hours  6 minutes 19.6 seconds.
 File lengths (MBytes):  RWF=   1392 Int=      0 D2E=      0 Chk=     32 Scr=     32
 Normal termination of Gaussian 16 at Wed Mar 13 04:39:39 2019.
