 Entering Gaussian System, Link 0=g16
 Input=NPQBOSHSVUVOHJ-UHFFFAOYSA-N_12by30.0_tor03_a2.com
 Output=NPQBOSHSVUVOHJ-UHFFFAOYSA-N_12by30.0_tor03_a2.log
 Initial command:
 /shared/centos7/gaussian/g16/l1.exe "/scratch/underkoffler.c/gaussian_scratch/Gau-10524.inp" -scrdir="/scratch/underkoffler.c/gaussian_scratch/"
 Entering Link 1 = /shared/centos7/gaussian/g16/l1.exe PID=     10525.
  
 Copyright (c) 1988,1990,1992,1993,1995,1998,2003,2009,2016,
            Gaussian, Inc.  All Rights Reserved.
  
 This is part of the Gaussian(R) 16 program.  It is based on
 the Gaussian(R) 09 system (copyright 2009, Gaussian, Inc.),
 the Gaussian(R) 03 system (copyright 2003, Gaussian, Inc.),
 the Gaussian(R) 98 system (copyright 1998, Gaussian, Inc.),
 the Gaussian(R) 94 system (copyright 1995, Gaussian, Inc.),
 the Gaussian 92(TM) system (copyright 1992, Gaussian, Inc.),
 the Gaussian 90(TM) system (copyright 1990, Gaussian, Inc.),
 the Gaussian 88(TM) system (copyright 1988, Gaussian, Inc.),
 the Gaussian 86(TM) system (copyright 1986, Carnegie Mellon
 University), and the Gaussian 82(TM) system (copyright 1983,
 Carnegie Mellon University). Gaussian is a federally registered
 trademark of Gaussian, Inc.
  
 This software contains proprietary and confidential information,
 including trade secrets, belonging to Gaussian, Inc.
  
 This software is provided under written license and may be
 used, copied, transmitted, or stored only in accord with that
 written license.
  
 The following legend is applicable only to US Government
 contracts under FAR:
  
                    RESTRICTED RIGHTS LEGEND
  
 Use, reproduction and disclosure by the US Government is
 subject to restrictions as set forth in subparagraphs (a)
 and (c) of the Commercial Computer Software - Restricted
 Rights clause in FAR 52.227-19.
  
 Gaussian, Inc.
 340 Quinnipiac St., Bldg. 40, Wallingford CT 06492
  
  
 ---------------------------------------------------------------
 Warning -- This program may not be used in any manner that
 competes with the business of Gaussian, Inc. or will provide
 assistance to any competitor of Gaussian, Inc.  The licensee
 of this program is prohibited from giving any competitor of
 Gaussian, Inc. access to this program.  By using this program,
 the user acknowledges that Gaussian, Inc. is engaged in the
 business of creating and licensing software in the field of
 computational chemistry and represents and warrants to the
 licensee that it is not a competitor of Gaussian, Inc. and that
 it will not use this program in any manner prohibited above.
 ---------------------------------------------------------------
  

 Cite this work as:
 Gaussian 16, Revision A.03,
 M. J. Frisch, G. W. Trucks, H. B. Schlegel, G. E. Scuseria, 
 M. A. Robb, J. R. Cheeseman, G. Scalmani, V. Barone, 
 G. A. Petersson, H. Nakatsuji, X. Li, M. Caricato, A. V. Marenich, 
 J. Bloino, B. G. Janesko, R. Gomperts, B. Mennucci, H. P. Hratchian, 
 J. V. Ortiz, A. F. Izmaylov, J. L. Sonnenberg, D. Williams-Young, 
 F. Ding, F. Lipparini, F. Egidi, J. Goings, B. Peng, A. Petrone, 
 T. Henderson, D. Ranasinghe, V. G. Zakrzewski, J. Gao, N. Rega, 
 G. Zheng, W. Liang, M. Hada, M. Ehara, K. Toyota, R. Fukuda, 
 J. Hasegawa, M. Ishida, T. Nakajima, Y. Honda, O. Kitao, H. Nakai, 
 T. Vreven, K. Throssell, J. A. Montgomery, Jr., J. E. Peralta, 
 F. Ogliaro, M. J. Bearpark, J. J. Heyd, E. N. Brothers, K. N. Kudin, 
 V. N. Staroverov, T. A. Keith, R. Kobayashi, J. Normand, 
 K. Raghavachari, A. P. Rendell, J. C. Burant, S. S. Iyengar, 
 J. Tomasi, M. Cossi, J. M. Millam, M. Klene, C. Adamo, R. Cammi, 
 J. W. Ochterski, R. L. Martin, K. Morokuma, O. Farkas, 
 J. B. Foresman, and D. J. Fox, Gaussian, Inc., Wallingford CT, 2016.
 
 ******************************************
 Gaussian 16:  EM64L-G16RevA.03 25-Dec-2016
                29-Mar-2019 
 ******************************************
 %nprocshared=20
 Will use up to   20 processors via shared memory.
 %mem=5GB
 ----------------------------------------------
 #p m062x/6-311+g(2df,2p) Opt=(CalcFC,ModRedun)
 ----------------------------------------------
 1/10=4,18=120,19=15,26=3,38=1/1,3;
 2/9=110,12=2,17=6,18=5,40=1/2;
 3/5=4,6=6,7=214,11=2,25=1,30=1,71=2,74=-55,140=1/1,2,3;
 4//1;
 5/5=2,38=5/2;
 8/6=4,10=90,11=11/1;
 11/6=1,8=1,9=11,15=111,16=1/1,2,10;
 10/6=1,13=1/2;
 6/7=2,8=2,9=2,10=2,28=1/1;
 7/10=1,18=20,25=1/1,2,3,16;
 1/10=4,18=20,19=15,26=3/3(2);
 2/9=110/2;
 99//99;
 2/9=110/2;
 3/5=4,6=6,7=214,11=2,25=1,30=1,71=1,74=-55/1,2,3;
 4/5=5,16=3,69=1/1;
 5/5=2,38=5/2;
 7//1,2,3,16;
 1/18=20,19=15,26=3/3(-5);
 2/9=110/2;
 6/7=2,8=2,9=2,10=2,19=2,28=1/1;
 99/9=1/99;
 Leave Link    1 at Fri Mar 29 16:17:36 2019, MaxMem=   671088640 cpu:              25.4 elap:               1.3
 (Enter /shared/centos7/gaussian/g16/l101.exe)
 ----------------------------------------
 Gaussian Input Prepared from Scan Object
 ----------------------------------------
 Symbolic Z-matrix:
 Charge =  0 Multiplicity = 2
 O                     1.07265  -0.70252  -0.00478 
 O                     0.0659    1.29342   0.01061 
 C                    -1.27645  -0.71467  -0.00446 
 C                     2.3307   -0.03158   0.00012 
 C                    -0.00324   0.09682   0.0015 
 C                    -2.49951   0.11959   0.00209 
 H                    -1.23175  -1.37934  -0.87518 
 H                    -1.23146  -1.39251   0.85602 
 H                     2.42571   0.58708   0.89023 
 H                     2.4254    0.60058  -0.88048 
 H                     3.08478  -0.81121  -0.00595 
 H                    -3.47056  -0.34762  -0.00133 
 H                    -2.41952   1.19394   0.01029 
 
 The following ModRedundant input section has been read:
 B       4      11 B                                                           
 B       2       5 B                                                           
 B       1       5 B                                                           
 B       6      13 B                                                           
 B       6      12 B                                                           
 B       3       6 B                                                           
 B       3       8 B                                                           
 B       1       4 B                                                           
 B       4      10 B                                                           
 B       4       9 B                                                           
 B       3       7 B                                                           
 B       3       5 B                                                           
 D       5       1       4      10 S  12 30.000                                
 
 ITRead=  0  0  0  0  0  0  0  0  0  0  0  0  0
 MicOpt= -1 -1 -1 -1 -1 -1 -1 -1 -1 -1 -1 -1 -1
 NAtoms=     13 NQM=       13 NQMF=       0 NMMI=      0 NMMIF=      0
                NMic=       0 NMicF=      0.
                    Isotopes and Nuclear Properties:
 (Nuclear quadrupole moments (NQMom) in fm**2, nuclear magnetic moments (NMagM)
  in nuclear magnetons)

  Atom         1           2           3           4           5           6           7           8           9          10
 IAtWgt=          16          16          12          12          12          12           1           1           1           1
 AtmWgt=  15.9949146  15.9949146  12.0000000  12.0000000  12.0000000  12.0000000   1.0078250   1.0078250   1.0078250   1.0078250
 NucSpn=           0           0           0           0           0           0           1           1           1           1
 AtZEff=  -0.0000000  -0.0000000  -0.0000000  -0.0000000  -0.0000000  -0.0000000  -0.0000000  -0.0000000  -0.0000000  -0.0000000
 NQMom=    0.0000000   0.0000000   0.0000000   0.0000000   0.0000000   0.0000000   0.0000000   0.0000000   0.0000000   0.0000000
 NMagM=    0.0000000   0.0000000   0.0000000   0.0000000   0.0000000   0.0000000   2.7928460   2.7928460   2.7928460   2.7928460
 AtZNuc=   8.0000000   8.0000000   6.0000000   6.0000000   6.0000000   6.0000000   1.0000000   1.0000000   1.0000000   1.0000000

  Atom        11          12          13
 IAtWgt=           1           1           1
 AtmWgt=   1.0078250   1.0078250   1.0078250
 NucSpn=           1           1           1
 AtZEff=  -0.0000000  -0.0000000  -0.0000000
 NQMom=    0.0000000   0.0000000   0.0000000
 NMagM=    2.7928460   2.7928460   2.7928460
 AtZNuc=   1.0000000   1.0000000   1.0000000
 Leave Link  101 at Fri Mar 29 16:17:37 2019, MaxMem=   671088640 cpu:               6.6 elap:               0.4
 (Enter /shared/centos7/gaussian/g16/l103.exe)

 GradGradGradGradGradGradGradGradGradGradGradGradGradGradGradGradGradGrad
 Berny optimization.
 Initialization pass.
                           ----------------------------
                           !    Initial Parameters    !
                           ! (Angstroms and Degrees)  !
 --------------------------                            --------------------------
 ! Name  Definition              Value          Derivative Info.                !
 --------------------------------------------------------------------------------
 ! R1    R(1,4)                  1.4258         calculate D2E/DX2 analytically  !
 ! R2    R(1,5)                  1.3403         calculate D2E/DX2 analytically  !
 ! R3    R(2,5)                  1.1986         calculate D2E/DX2 analytically  !
 ! R4    R(3,5)                  1.5098         calculate D2E/DX2 analytically  !
 ! R5    R(3,6)                  1.4805         calculate D2E/DX2 analytically  !
 ! R6    R(3,7)                  1.0963         calculate D2E/DX2 analytically  !
 ! R7    R(3,8)                  1.0963         calculate D2E/DX2 analytically  !
 ! R8    R(4,9)                  1.0881         calculate D2E/DX2 analytically  !
 ! R9    R(4,10)                 1.0881         calculate D2E/DX2 analytically  !
 ! R10   R(4,11)                 1.0847         calculate D2E/DX2 analytically  !
 ! R11   R(6,12)                 1.0776         calculate D2E/DX2 analytically  !
 ! R12   R(6,13)                 1.0774         calculate D2E/DX2 analytically  !
 ! A1    A(4,1,5)              115.316          calculate D2E/DX2 analytically  !
 ! A2    A(5,3,6)              113.1886         calculate D2E/DX2 analytically  !
 ! A3    A(5,3,7)              107.1335         calculate D2E/DX2 analytically  !
 ! A4    A(5,3,8)              107.1333         calculate D2E/DX2 analytically  !
 ! A5    A(6,3,7)              112.2614         calculate D2E/DX2 analytically  !
 ! A6    A(6,3,8)              112.2614         calculate D2E/DX2 analytically  !
 ! A7    A(7,3,8)              104.2908         calculate D2E/DX2 analytically  !
 ! A8    A(1,4,9)              110.3281         calculate D2E/DX2 analytically  !
 ! A9    A(1,4,10)             110.3281         calculate D2E/DX2 analytically  !
 ! A10   A(1,4,11)             105.9721         calculate D2E/DX2 analytically  !
 ! A11   A(9,4,10)             108.9106         calculate D2E/DX2 analytically  !
 ! A12   A(9,4,11)             110.6424         calculate D2E/DX2 analytically  !
 ! A13   A(10,4,11)            110.6424         calculate D2E/DX2 analytically  !
 ! A14   A(1,5,2)              123.3045         calculate D2E/DX2 analytically  !
 ! A15   A(1,5,3)              110.8763         calculate D2E/DX2 analytically  !
 ! A16   A(2,5,3)              125.8192         calculate D2E/DX2 analytically  !
 ! A17   A(3,6,12)             120.0062         calculate D2E/DX2 analytically  !
 ! A18   A(3,6,13)             120.0411         calculate D2E/DX2 analytically  !
 ! A19   A(12,6,13)            119.9527         calculate D2E/DX2 analytically  !
 ! D1    D(5,1,4,9)             60.1928         calculate D2E/DX2 analytically  !
 ! D2    D(5,1,4,10)           -60.193          Scan                            !
 ! D3    D(5,1,4,11)           179.9999         calculate D2E/DX2 analytically  !
 ! D4    D(4,1,5,2)              0.0            calculate D2E/DX2 analytically  !
 ! D5    D(4,1,5,3)           -179.9999         calculate D2E/DX2 analytically  !
 ! D6    D(6,3,5,1)           -179.9993         calculate D2E/DX2 analytically  !
 ! D7    D(6,3,5,2)              0.0008         calculate D2E/DX2 analytically  !
 ! D8    D(7,3,5,1)            -55.7134         calculate D2E/DX2 analytically  !
 ! D9    D(7,3,5,2)            124.2867         calculate D2E/DX2 analytically  !
 ! D10   D(8,3,5,1)             55.715          calculate D2E/DX2 analytically  !
 ! D11   D(8,3,5,2)           -124.2849         calculate D2E/DX2 analytically  !
 ! D12   D(5,3,6,12)           179.9986         calculate D2E/DX2 analytically  !
 ! D13   D(5,3,6,13)            -0.0022         calculate D2E/DX2 analytically  !
 ! D14   D(7,3,6,12)            58.5556         calculate D2E/DX2 analytically  !
 ! D15   D(7,3,6,13)          -121.4452         calculate D2E/DX2 analytically  !
 ! D16   D(8,3,6,12)           -58.5587         calculate D2E/DX2 analytically  !
 ! D17   D(8,3,6,13)           121.4406         calculate D2E/DX2 analytically  !
 --------------------------------------------------------------------------------
 Trust Radius=3.00D-01 FncErr=1.00D-07 GrdErr=1.00D-06 EigMax=2.50D+02 EigMin=1.00D-04
 Number of optimizations in scan=  13
 Number of steps in this run=     58 maximum allowed number of steps=    100.
 GradGradGradGradGradGradGradGradGradGradGradGradGradGradGradGradGradGrad

 Leave Link  103 at Fri Mar 29 16:17:37 2019, MaxMem=   671088640 cpu:               0.1 elap:               0.0
 (Enter /shared/centos7/gaussian/g16/l202.exe)
                          Input orientation:                          
 ---------------------------------------------------------------------
 Center     Atomic      Atomic             Coordinates (Angstroms)
 Number     Number       Type             X           Y           Z
 ---------------------------------------------------------------------
      1          8           0        1.072653   -0.702520   -0.004776
      2          8           0        0.065900    1.293419    0.010613
      3          6           0       -1.276453   -0.714673   -0.004464
      4          6           0        2.330696   -0.031578    0.000124
      5          6           0       -0.003241    0.096816    0.001502
      6          6           0       -2.499513    0.119586    0.002088
      7          1           0       -1.231746   -1.379336   -0.875175
      8          1           0       -1.231457   -1.392511    0.856016
      9          1           0        2.425705    0.587084    0.890234
     10          1           0        2.425403    0.600582   -0.880484
     11          1           0        3.084779   -0.811211   -0.005948
     12          1           0       -3.470555   -0.347623   -0.001331
     13          1           0       -2.419523    1.193936    0.010289
 ---------------------------------------------------------------------
                    Distance matrix (angstroms):
                    1          2          3          4          5
     1  O    0.000000
     2  O    2.235522   0.000000
     3  C    2.349137   2.415486   0.000000
     4  C    1.425784   2.623934   3.671262   0.000000
     5  C    1.340345   1.198634   1.509841   2.337467   0.000000
     6  C    3.665552   2.821223   1.480509   4.832575   2.496376
     7  H    2.554590   3.100343   1.096318   3.908145   2.111116
     8  H    2.554598   3.100332   1.096319   3.908149   2.111114
     9  H    2.072408   2.615592   4.025051   1.088148   2.632487
    10  H    2.072408   2.615594   4.025052   1.088148   2.632488
    11  H    2.015060   3.680132   4.362300   1.084668   3.218763
    12  H    4.557050   3.898676   2.224594   5.809855   3.495683
    13  H    3.973922   2.487412   2.224773   4.905769   2.653708
                    6          7          8          9         10
     6  C    0.000000
     7  H    2.150254   0.000000
     8  H    2.150255   1.731241   0.000000
     9  H    5.026443   4.512253   4.158703   0.000000
    10  H    5.026439   4.158707   4.512259   1.770770   0.000000
    11  H    5.661339   4.439674   4.439683   1.786827   1.786827
    12  H    1.077599   2.615397   2.615415   6.036096   6.036086
    13  H    1.077355   2.969274   2.969252   4.961734   4.961739
                   11         12         13
    11  H    0.000000
    12  H    6.571708   0.000000
    13  H    5.858175   1.865800   0.000000
 Stoichiometry    C4H7O2(2)
 Framework group  C1[X(C4H7O2)]
 Deg. of freedom    33
 Full point group                 C1      NOp   1
 Largest Abelian subgroup         C1      NOp   1
 Largest concise Abelian subgroup C1      NOp   1
                         Standard orientation:                         
 ---------------------------------------------------------------------
 Center     Atomic      Atomic             Coordinates (Angstroms)
 Number     Number       Type             X           Y           Z
 ---------------------------------------------------------------------
      1          8           0        1.072656   -0.702517   -0.000001
      2          8           0        0.065896    1.293478    0.000002
      3          6           0       -1.276450   -0.714676    0.000006
      4          6           0        2.330697   -0.031553   -0.000003
      5          6           0       -0.003241    0.096840    0.000002
      6          6           0       -2.499513    0.119605   -0.000008
      7          1           0       -1.231594   -1.385957   -0.865605
      8          1           0       -1.231598   -1.385934    0.865636
      9          1           0        2.425554    0.593878    0.885381
     10          1           0        2.425551    0.593876   -0.885389
     11          1           0        3.084782   -0.811207   -0.000004
     12          1           0       -3.470553   -0.347620   -0.000029
     13          1           0       -2.419526    1.193986    0.000016
 ---------------------------------------------------------------------
 Rotational constants (GHZ):           9.9244863           2.2577598           1.8816525
 Leave Link  202 at Fri Mar 29 16:17:37 2019, MaxMem=   671088640 cpu:               0.2 elap:               0.0
 (Enter /shared/centos7/gaussian/g16/l301.exe)
 Standard basis: 6-311+G(2df,2p) (5D, 7F)
 Ernie: Thresh=  0.10000D-02 Tol=  0.10000D-05 Strict=F.
 There are   297 symmetry adapted cartesian basis functions of A   symmetry.
 There are   267 symmetry adapted basis functions of A   symmetry.
   267 basis functions,   389 primitive gaussians,   297 cartesian basis functions
    24 alpha electrons       23 beta electrons
       nuclear repulsion energy       237.0910136045 Hartrees.
 IExCor= 4336 DFT=T Ex+Corr=M062X ExCW=0 ScaHFX=  0.540000
 ScaDFX=  1.000000  1.000000  1.000000  1.000000 ScalE2=  1.000000  1.000000
 IRadAn=      5 IRanWt=     -1 IRanGd=            0 ICorTp=0 IEmpDi=  4
 NAtoms=   13 NActive=   13 NUniq=   13 SFac= 1.00D+00 NAtFMM=   60 NAOKFM=F Big=F
 Integral buffers will be    131072 words long.
 Raffenetti 2 integral format.
 Two-electron integral symmetry is turned on.
 Leave Link  301 at Fri Mar 29 16:17:37 2019, MaxMem=   671088640 cpu:               1.0 elap:               0.1
 (Enter /shared/centos7/gaussian/g16/l302.exe)
 NPDir=0 NMtPBC=     1 NCelOv=     1 NCel=       1 NClECP=     1 NCelD=      1
         NCelK=      1 NCelE2=     1 NClLst=     1 CellRange=     0.0.
 One-electron integrals computed using PRISM.
 One-electron integral symmetry used in STVInt
 NBasis=   267 RedAO= T EigKep=  2.86D-05  NBF=   267
 NBsUse=   267 1.00D-06 EigRej= -1.00D+00 NBFU=   267
 Precomputing XC quadrature grid using
 IXCGrd= 4 IRadAn=           5 IRanWt=          -1 IRanGd=           0 AccXCQ= 0.00D+00.
 Generated NRdTot=       0 NPtTot=           0 NUsed=           0 NTot=          32
 NSgBfM=   297   297   297   297   297 MxSgAt=    13 MxSgA2=    13.
 Leave Link  302 at Fri Mar 29 16:17:37 2019, MaxMem=   671088640 cpu:               5.6 elap:               0.3
 (Enter /shared/centos7/gaussian/g16/l303.exe)
 DipDrv:  MaxL=1.
 Leave Link  303 at Fri Mar 29 16:17:37 2019, MaxMem=   671088640 cpu:               0.6 elap:               0.1
 (Enter /shared/centos7/gaussian/g16/l401.exe)
 ExpMin= 4.38D-02 ExpMax= 8.59D+03 ExpMxC= 1.30D+03 IAcc=3 IRadAn=         5 AccDes= 0.00D+00
 Harris functional with IExCor= 1009 and IRadAn=       5 diagonalized for initial guess.
 HarFok:  IExCor= 1009 AccDes= 0.00D+00 IRadAn=         5 IDoV= 1 UseB2=F ITyADJ=14
 ICtDFT=  3500011 ScaDFX=  1.000000  1.000000  1.000000  1.000000
 FoFCou: FMM=F IPFlag=           0 FMFlag=      100000 FMFlg1=           0
         NFxFlg=           0 DoJE=T BraDBF=F KetDBF=T FulRan=T
         wScrn=  0.000000 ICntrl=       500 IOpCl=  0 I1Cent=   200000004 NGrid=           0
         NMat0=    1 NMatS0=      1 NMatT0=    0 NMatD0=    1 NMtDS0=    0 NMtDT0=    0
 Petite list used in FoFCou.
 Harris En= -306.860627149380    
 JPrj=0 DoOrth=F DoCkMO=F.
 Initial guess <Sx>= 0.0000 <Sy>= 0.0000 <Sz>= 0.5000 <S**2>= 0.7500 S= 0.5000
 Leave Link  401 at Fri Mar 29 16:17:38 2019, MaxMem=   671088640 cpu:              16.0 elap:               0.8
 (Enter /shared/centos7/gaussian/g16/l502.exe)
 Integral symmetry usage will be decided dynamically.
 UHF open shell SCF:
 Using DIIS extrapolation, IDIIS=  1040.
 NGot=   671088640 LenX=   670903575 LenY=   670814925
 Requested convergence on RMS density matrix=1.00D-08 within 128 cycles.
 Requested convergence on MAX density matrix=1.00D-06.
 Requested convergence on             energy=1.00D-06.
 No special actions if energy rises.
 Fock matrices will be formed incrementally for  20 cycles.

 Cycle   1  Pass 1  IDiag  1:
 FoFJK:  IHMeth= 1 ICntrl=       0 DoSepK=F KAlg= 0 I1Cent=           0 FoldK=F
 IRaf= 960000000 NMat=       1 IRICut=       1 DoRegI=T DoRafI=F ISym2E= 0 IDoP0=0 IntGTp=1.
 FoFCou: FMM=F IPFlag=           0 FMFlag=      100000 FMFlg1=           0
         NFxFlg=           0 DoJE=F BraDBF=F KetDBF=F FulRan=T
         wScrn=  0.000000 ICntrl=         0 IOpCl=  1 I1Cent=           0 NGrid=           0
         NMat0=    1 NMatS0=      1 NMatT0=    0 NMatD0=    1 NMtDS0=    0 NMtDT0=    0
 Symmetry not used in FoFCou.
 E= -306.826263764188    
 DIIS: error= 2.96D-02 at cycle   1 NSaved=   1.
 NSaved= 1 IEnMin= 1 EnMin= -306.826263764188     IErMin= 1 ErrMin= 2.96D-02
 ErrMax= 2.96D-02  0.00D+00 EMaxC= 1.00D-01 BMatC= 9.99D-01 BMatP= 9.99D-01
 IDIUse=3 WtCom= 7.04D-01 WtEn= 2.96D-01
 Coeff-Com:  0.100D+01
 Coeff-En:   0.100D+01
 Coeff:      0.100D+01
 Gap=     0.263 Goal=   None    Shift=    0.000
 Gap=     0.327 Goal=   None    Shift=    0.000
 GapD=    0.263 DampG=1.000 DampE=0.500 DampFc=0.5000 IDamp=-1.
 Damping current iteration by 5.00D-01
 RMSDP=2.57D-03 MaxDP=1.30D-01              OVMax= 1.93D-01

 Cycle   2  Pass 1  IDiag  1:
 RMSU=  1.26D-03    CP:  9.73D-01
 E= -306.910090171755     Delta-E=       -0.083826407566 Rises=F Damp=T
 DIIS: error= 7.47D-03 at cycle   2 NSaved=   2.
 NSaved= 2 IEnMin= 2 EnMin= -306.910090171755     IErMin= 2 ErrMin= 7.47D-03
 ErrMax= 7.47D-03  0.00D+00 EMaxC= 1.00D-01 BMatC= 9.27D-02 BMatP= 9.99D-01
 IDIUse=3 WtCom= 9.25D-01 WtEn= 7.47D-02
 Coeff-Com: -0.218D-01 0.102D+01
 Coeff-En:   0.000D+00 0.100D+01
 Coeff:     -0.202D-01 0.102D+01
 Gap=     0.267 Goal=   None    Shift=    0.000
 Gap=     0.392 Goal=   None    Shift=    0.000
 RMSDP=1.07D-03 MaxDP=8.14D-02 DE=-8.38D-02 OVMax= 1.17D-01

 Cycle   3  Pass 1  IDiag  1:
 RMSU=  1.03D-03    CP:  9.45D-01  1.03D+00
 E= -306.993449304599     Delta-E=       -0.083359132844 Rises=F Damp=F
 DIIS: error= 7.47D-03 at cycle   3 NSaved=   3.
 NSaved= 3 IEnMin= 3 EnMin= -306.993449304599     IErMin= 3 ErrMin= 7.47D-03
 ErrMax= 7.47D-03  0.00D+00 EMaxC= 1.00D-01 BMatC= 6.38D-02 BMatP= 9.27D-02
 IDIUse=3 WtCom= 9.25D-01 WtEn= 7.47D-02
 Coeff-Com: -0.934D-01 0.491D+00 0.602D+00
 Coeff-En:   0.000D+00 0.000D+00 0.100D+01
 Coeff:     -0.864D-01 0.454D+00 0.632D+00
 Gap=     0.283 Goal=   None    Shift=    0.000
 Gap=     0.330 Goal=   None    Shift=    0.000
 RMSDP=3.88D-04 MaxDP=1.54D-02 DE=-8.34D-02 OVMax= 4.49D-02

 Cycle   4  Pass 1  IDiag  1:
 RMSU=  3.63D-04    CP:  9.46D-01  1.12D+00  9.19D-01
 E= -307.003144180296     Delta-E=       -0.009694875698 Rises=F Damp=F
 DIIS: error= 2.34D-03 at cycle   4 NSaved=   4.
 NSaved= 4 IEnMin= 4 EnMin= -307.003144180296     IErMin= 4 ErrMin= 2.34D-03
 ErrMax= 2.34D-03  0.00D+00 EMaxC= 1.00D-01 BMatC= 1.02D-02 BMatP= 6.38D-02
 IDIUse=3 WtCom= 9.77D-01 WtEn= 2.34D-02
 Coeff-Com: -0.326D-01 0.786D-01 0.321D+00 0.633D+00
 Coeff-En:   0.000D+00 0.000D+00 0.119D+00 0.881D+00
 Coeff:     -0.319D-01 0.768D-01 0.316D+00 0.639D+00
 Gap=     0.278 Goal=   None    Shift=    0.000
 Gap=     0.332 Goal=   None    Shift=    0.000
 RMSDP=1.31D-04 MaxDP=5.37D-03 DE=-9.69D-03 OVMax= 1.14D-02

 Cycle   5  Pass 1  IDiag  1:
 RMSU=  6.63D-05    CP:  9.43D-01  1.10D+00  9.83D-01  7.67D-01
 E= -307.005038225668     Delta-E=       -0.001894045372 Rises=F Damp=F
 DIIS: error= 4.19D-04 at cycle   5 NSaved=   5.
 NSaved= 5 IEnMin= 5 EnMin= -307.005038225668     IErMin= 5 ErrMin= 4.19D-04
 ErrMax= 4.19D-04  0.00D+00 EMaxC= 1.00D-01 BMatC= 2.98D-04 BMatP= 1.02D-02
 IDIUse=3 WtCom= 9.96D-01 WtEn= 4.19D-03
 Coeff-Com: -0.749D-02 0.898D-02 0.947D-01 0.244D+00 0.659D+00
 Coeff-En:   0.000D+00 0.000D+00 0.000D+00 0.000D+00 0.100D+01
 Coeff:     -0.746D-02 0.894D-02 0.943D-01 0.243D+00 0.661D+00
 Gap=     0.278 Goal=   None    Shift=    0.000
 Gap=     0.332 Goal=   None    Shift=    0.000
 RMSDP=2.63D-05 MaxDP=1.32D-03 DE=-1.89D-03 OVMax= 2.68D-03

 Cycle   6  Pass 1  IDiag  1:
 RMSU=  2.44D-05    CP:  9.43D-01  1.10D+00  9.86D-01  7.87D-01  9.48D-01
 E= -307.005097747329     Delta-E=       -0.000059521662 Rises=F Damp=F
 DIIS: error= 1.80D-04 at cycle   6 NSaved=   6.
 NSaved= 6 IEnMin= 6 EnMin= -307.005097747329     IErMin= 6 ErrMin= 1.80D-04
 ErrMax= 1.80D-04  0.00D+00 EMaxC= 1.00D-01 BMatC= 5.30D-05 BMatP= 2.98D-04
 IDIUse=3 WtCom= 9.98D-01 WtEn= 1.80D-03
 Coeff-Com:  0.292D-02-0.110D-01-0.202D-01-0.233D-01 0.255D+00 0.797D+00
 Coeff-En:   0.000D+00 0.000D+00 0.000D+00 0.000D+00 0.000D+00 0.100D+01
 Coeff:      0.291D-02-0.110D-01-0.202D-01-0.232D-01 0.255D+00 0.797D+00
 Gap=     0.279 Goal=   None    Shift=    0.000
 Gap=     0.332 Goal=   None    Shift=    0.000
 RMSDP=1.51D-05 MaxDP=6.40D-04 DE=-5.95D-05 OVMax= 1.42D-03

 Cycle   7  Pass 1  IDiag  1:
 RMSU=  1.11D-05    CP:  9.43D-01  1.10D+00  9.91D-01  7.97D-01  1.06D+00
                    CP:  1.08D+00
 E= -307.005112893005     Delta-E=       -0.000015145676 Rises=F Damp=F
 DIIS: error= 7.34D-05 at cycle   7 NSaved=   7.
 NSaved= 7 IEnMin= 7 EnMin= -307.005112893005     IErMin= 7 ErrMin= 7.34D-05
 ErrMax= 7.34D-05  0.00D+00 EMaxC= 1.00D-01 BMatC= 5.08D-06 BMatP= 5.30D-05
 IDIUse=1 WtCom= 1.00D+00 WtEn= 0.00D+00
 Coeff-Com:  0.213D-02-0.412D-02-0.217D-01-0.538D-01-0.687D-01 0.168D+00
 Coeff-Com:  0.978D+00
 Coeff:      0.213D-02-0.412D-02-0.217D-01-0.538D-01-0.687D-01 0.168D+00
 Coeff:      0.978D+00
 Gap=     0.279 Goal=   None    Shift=    0.000
 Gap=     0.333 Goal=   None    Shift=    0.000
 RMSDP=6.91D-06 MaxDP=5.26D-04 DE=-1.51D-05 OVMax= 6.25D-04

 Cycle   8  Pass 1  IDiag  1:
 RMSU=  4.59D-06    CP:  9.43D-01  1.10D+00  9.91D-01  7.96D-01  1.10D+00
                    CP:  1.22D+00  1.18D+00
 E= -307.005115139861     Delta-E=       -0.000002246856 Rises=F Damp=F
 DIIS: error= 1.79D-05 at cycle   8 NSaved=   8.
 NSaved= 8 IEnMin= 8 EnMin= -307.005115139861     IErMin= 8 ErrMin= 1.79D-05
 ErrMax= 1.79D-05  0.00D+00 EMaxC= 1.00D-01 BMatC= 5.23D-07 BMatP= 5.08D-06
 IDIUse=1 WtCom= 1.00D+00 WtEn= 0.00D+00
 Coeff-Com:  0.326D-03-0.291D-03-0.409D-02-0.133D-01-0.392D-01-0.105D-01
 Coeff-Com:  0.283D+00 0.784D+00
 Coeff:      0.326D-03-0.291D-03-0.409D-02-0.133D-01-0.392D-01-0.105D-01
 Coeff:      0.283D+00 0.784D+00
 Gap=     0.279 Goal=   None    Shift=    0.000
 Gap=     0.333 Goal=   None    Shift=    0.000
 RMSDP=1.91D-06 MaxDP=9.53D-05 DE=-2.25D-06 OVMax= 1.50D-04

 Cycle   9  Pass 1  IDiag  1:
 RMSU=  1.48D-06    CP:  9.43D-01  1.10D+00  9.91D-01  7.95D-01  1.10D+00
                    CP:  1.23D+00  1.26D+00  1.14D+00
 E= -307.005115301302     Delta-E=       -0.000000161441 Rises=F Damp=F
 DIIS: error= 7.22D-06 at cycle   9 NSaved=   9.
 NSaved= 9 IEnMin= 9 EnMin= -307.005115301302     IErMin= 9 ErrMin= 7.22D-06
 ErrMax= 7.22D-06  0.00D+00 EMaxC= 1.00D-01 BMatC= 5.29D-08 BMatP= 5.23D-07
 IDIUse=1 WtCom= 1.00D+00 WtEn= 0.00D+00
 Coeff-Com: -0.283D-03 0.626D-03 0.250D-02 0.550D-02 0.106D-02-0.257D-01
 Coeff-Com: -0.951D-01 0.150D+00 0.961D+00
 Coeff:     -0.283D-03 0.626D-03 0.250D-02 0.550D-02 0.106D-02-0.257D-01
 Coeff:     -0.951D-01 0.150D+00 0.961D+00
 Gap=     0.279 Goal=   None    Shift=    0.000
 Gap=     0.333 Goal=   None    Shift=    0.000
 RMSDP=9.35D-07 MaxDP=4.61D-05 DE=-1.61D-07 OVMax= 6.30D-05

 Cycle  10  Pass 1  IDiag  1:
 RMSU=  4.56D-07    CP:  9.43D-01  1.10D+00  9.90D-01  7.95D-01  1.10D+00
                    CP:  1.23D+00  1.28D+00  1.28D+00  1.15D+00
 E= -307.005115322681     Delta-E=       -0.000000021379 Rises=F Damp=F
 DIIS: error= 1.40D-06 at cycle  10 NSaved=  10.
 NSaved=10 IEnMin=10 EnMin= -307.005115322681     IErMin=10 ErrMin= 1.40D-06
 ErrMax= 1.40D-06  0.00D+00 EMaxC= 1.00D-01 BMatC= 2.59D-09 BMatP= 5.29D-08
 IDIUse=1 WtCom= 1.00D+00 WtEn= 0.00D+00
 Coeff-Com: -0.275D-04 0.434D-04 0.239D-03 0.967D-03 0.212D-02 0.857D-03
 Coeff-Com: -0.202D-01-0.457D-01 0.242D-01 0.104D+01
 Coeff:     -0.275D-04 0.434D-04 0.239D-03 0.967D-03 0.212D-02 0.857D-03
 Coeff:     -0.202D-01-0.457D-01 0.242D-01 0.104D+01
 Gap=     0.279 Goal=   None    Shift=    0.000
 Gap=     0.333 Goal=   None    Shift=    0.000
 RMSDP=2.23D-07 MaxDP=1.14D-05 DE=-2.14D-08 OVMax= 1.43D-05

 Cycle  11  Pass 1  IDiag  1:
 RMSU=  1.11D-07    CP:  9.43D-01  1.10D+00  9.90D-01  7.95D-01  1.10D+00
                    CP:  1.23D+00  1.28D+00  1.30D+00  1.23D+00  1.19D+00
 E= -307.005115323964     Delta-E=       -0.000000001283 Rises=F Damp=F
 DIIS: error= 6.09D-07 at cycle  11 NSaved=  11.
 NSaved=11 IEnMin=11 EnMin= -307.005115323964     IErMin=11 ErrMin= 6.09D-07
 ErrMax= 6.09D-07  0.00D+00 EMaxC= 1.00D-01 BMatC= 1.95D-10 BMatP= 2.59D-09
 IDIUse=1 WtCom= 1.00D+00 WtEn= 0.00D+00
 Coeff-Com:  0.148D-04-0.340D-04-0.134D-03-0.261D-03 0.151D-03 0.141D-02
 Coeff-Com:  0.420D-02-0.115D-01-0.615D-01 0.831D-01 0.985D+00
 Coeff:      0.148D-04-0.340D-04-0.134D-03-0.261D-03 0.151D-03 0.141D-02
 Coeff:      0.420D-02-0.115D-01-0.615D-01 0.831D-01 0.985D+00
 Gap=     0.279 Goal=   None    Shift=    0.000
 Gap=     0.333 Goal=   None    Shift=    0.000
 RMSDP=5.33D-08 MaxDP=2.80D-06 DE=-1.28D-09 OVMax= 6.19D-06

 Cycle  12  Pass 1  IDiag  1:
 RMSU=  2.78D-08    CP:  9.43D-01  1.10D+00  9.90D-01  7.95D-01  1.10D+00
                    CP:  1.23D+00  1.28D+00  1.30D+00  1.23D+00  1.27D+00
                    CP:  1.18D+00
 E= -307.005115324075     Delta-E=       -0.000000000112 Rises=F Damp=F
 DIIS: error= 3.06D-07 at cycle  12 NSaved=  12.
 NSaved=12 IEnMin=12 EnMin= -307.005115324075     IErMin=12 ErrMin= 3.06D-07
 ErrMax= 3.06D-07  0.00D+00 EMaxC= 1.00D-01 BMatC= 5.52D-11 BMatP= 1.95D-10
 IDIUse=1 WtCom= 1.00D+00 WtEn= 0.00D+00
 Coeff-Com:  0.743D-05-0.146D-04-0.738D-04-0.184D-03-0.142D-03 0.420D-03
 Coeff-Com:  0.339D-02 0.524D-03-0.235D-01-0.725D-01 0.315D+00 0.777D+00
 Coeff:      0.743D-05-0.146D-04-0.738D-04-0.184D-03-0.142D-03 0.420D-03
 Coeff:      0.339D-02 0.524D-03-0.235D-01-0.725D-01 0.315D+00 0.777D+00
 Gap=     0.279 Goal=   None    Shift=    0.000
 Gap=     0.333 Goal=   None    Shift=    0.000
 RMSDP=1.76D-08 MaxDP=8.99D-07 DE=-1.12D-10 OVMax= 2.79D-06

 Cycle  13  Pass 1  IDiag  1:
 RMSU=  1.36D-08    CP:  9.43D-01  1.10D+00  9.90D-01  7.95D-01  1.10D+00
                    CP:  1.23D+00  1.28D+00  1.30D+00  1.24D+00  1.28D+00
                    CP:  1.26D+00  1.12D+00
 E= -307.005115324107     Delta-E=       -0.000000000032 Rises=F Damp=F
 DIIS: error= 1.47D-07 at cycle  13 NSaved=  13.
 NSaved=13 IEnMin=13 EnMin= -307.005115324107     IErMin=13 ErrMin= 1.47D-07
 ErrMax= 1.47D-07  0.00D+00 EMaxC= 1.00D-01 BMatC= 1.04D-11 BMatP= 5.52D-11
 IDIUse=1 WtCom= 1.00D+00 WtEn= 0.00D+00
 Coeff-Com: -0.337D-05 0.719D-05 0.255D-04 0.551D-04-0.438D-04-0.269D-03
 Coeff-Com: -0.814D-03 0.264D-02 0.134D-01-0.234D-01-0.228D+00 0.510D-01
 Coeff-Com:  0.118D+01
 Coeff:     -0.337D-05 0.719D-05 0.255D-04 0.551D-04-0.438D-04-0.269D-03
 Coeff:     -0.814D-03 0.264D-02 0.134D-01-0.234D-01-0.228D+00 0.510D-01
 Coeff:      0.118D+01
 Gap=     0.279 Goal=   None    Shift=    0.000
 Gap=     0.333 Goal=   None    Shift=    0.000
 RMSDP=1.36D-08 MaxDP=7.71D-07 DE=-3.18D-11 OVMax= 2.17D-06

 Cycle  14  Pass 1  IDiag  1:
 RMSU=  6.33D-09    CP:  9.43D-01  1.10D+00  9.90D-01  7.95D-01  1.10D+00
                    CP:  1.23D+00  1.28D+00  1.29D+00  1.23D+00  1.28D+00
                    CP:  1.30D+00  1.42D+00  1.45D+00
 E= -307.005115324113     Delta-E=       -0.000000000006 Rises=F Damp=F
 DIIS: error= 6.75D-08 at cycle  14 NSaved=  14.
 NSaved=14 IEnMin=14 EnMin= -307.005115324113     IErMin=14 ErrMin= 6.75D-08
 ErrMax= 6.75D-08  0.00D+00 EMaxC= 1.00D-01 BMatC= 1.49D-12 BMatP= 1.04D-11
 IDIUse=1 WtCom= 1.00D+00 WtEn= 0.00D+00
 Coeff-Com: -0.573D-06 0.113D-05 0.918D-05 0.208D-04 0.298D-04-0.369D-04
 Coeff-Com: -0.449D-03-0.568D-03 0.194D-02 0.169D-01-0.102D-01-0.145D+00
 Coeff-Com: -0.241D+00 0.138D+01
 Coeff:     -0.573D-06 0.113D-05 0.918D-05 0.208D-04 0.298D-04-0.369D-04
 Coeff:     -0.449D-03-0.568D-03 0.194D-02 0.169D-01-0.102D-01-0.145D+00
 Coeff:     -0.241D+00 0.138D+01
 Gap=     0.279 Goal=   None    Shift=    0.000
 Gap=     0.333 Goal=   None    Shift=    0.000
 RMSDP=6.86D-09 MaxDP=4.45D-07 DE=-5.91D-12 OVMax= 1.27D-06

 SCF Done:  E(UM062X) =  -307.005115324     A.U. after   14 cycles
            NFock= 14  Conv=0.69D-08     -V/T= 2.0035
 <Sx>= 0.0000 <Sy>= 0.0000 <Sz>= 0.5000 <S**2>= 0.7552 S= 0.5026
 <L.S>= 0.000000000000E+00
 KE= 3.059336700743D+02 PE=-1.192521449525D+03 EE= 3.424916505220D+02
 Annihilation of the first spin contaminant:
 S**2 before annihilation     0.7552,   after     0.7500
 Leave Link  502 at Fri Mar 29 16:18:22 2019, MaxMem=   671088640 cpu:             881.7 elap:              44.1
 (Enter /shared/centos7/gaussian/g16/l801.exe)
 DoSCS=F DFT=T ScalE2(SS,OS)=  1.000000  1.000000
 Range of M.O.s used for correlation:     1   267
 NBasis=   267 NAE=    24 NBE=    23 NFC=     0 NFV=     0
 NROrb=    267 NOA=    24 NOB=    23 NVA=   243 NVB=   244

 **** Warning!!: The largest alpha MO coefficient is  0.77356133D+02


 **** Warning!!: The largest beta MO coefficient is  0.69385919D+02

 Leave Link  801 at Fri Mar 29 16:18:22 2019, MaxMem=   671088640 cpu:               0.4 elap:               0.0
 (Enter /shared/centos7/gaussian/g16/l1101.exe)
 Using compressed storage, NAtomX=    13.
 Will process     14 centers per pass.
 Leave Link 1101 at Fri Mar 29 16:18:23 2019, MaxMem=   671088640 cpu:               6.3 elap:               0.3
 (Enter /shared/centos7/gaussian/g16/l1102.exe)
 Symmetrizing basis deriv contribution to polar:
 IMax=3 JMax=2 DiffMx= 0.00D+00
 Leave Link 1102 at Fri Mar 29 16:18:23 2019, MaxMem=   671088640 cpu:               6.9 elap:               0.4
 (Enter /shared/centos7/gaussian/g16/l1110.exe)
 Forming Gx(P) for the SCF density, NAtomX=    13.
 Integral derivatives from FoFJK, PRISM(SPDF).
 Do as many integral derivatives as possible in FoFJK.
 G2DrvN: MDV=     671087568.
 G2DrvN: will do    14 centers at a time, making    1 passes.
 Calling FoFCou, ICntrl=  3107 FMM=F I1Cent=   0 AccDes= 0.00D+00.
 FoFJK:  IHMeth= 1 ICntrl=    3107 DoSepK=F KAlg= 0 I1Cent=           0 FoldK=F
 IRaf=         0 NMat=       1 IRICut=       1 DoRegI=T DoRafI=F ISym2E= 0 IDoP0=0 IntGTp=1.
 FoFCou: FMM=F IPFlag=           0 FMFlag=      100000 FMFlg1=           0
         NFxFlg=           0 DoJE=F BraDBF=F KetDBF=F FulRan=T
         wScrn=  0.000000 ICntrl=      3107 IOpCl=  1 I1Cent=           0 NGrid=           0
         NMat0=    1 NMatS0=      1 NMatT0=    0 NMatD0=    1 NMtDS0=    0 NMtDT0=    0
 Symmetry not used in FoFCou.
 End of G2Drv F.D. properties file   721 does not exist.
 End of G2Drv F.D. properties file   722 does not exist.
 End of G2Drv F.D. properties file   788 does not exist.
 Leave Link 1110 at Fri Mar 29 16:19:42 2019, MaxMem=   671088640 cpu:            1576.7 elap:              78.9
 (Enter /shared/centos7/gaussian/g16/l1002.exe)
 Minotr:  UHF open shell wavefunction.
          IDoAtm=1111111111111
          Direct CPHF calculation.
          Differentiating once with respect to nuclear coordinates.
          Requested convergence is 1.0D-08 RMS, and 1.0D-07 maximum.
          Secondary convergence is 1.0D-12 RMS, and 1.0D-12 maximum.
          NewPWx=T KeepS1=F KeepF1=F KeepIn=T MapXYZ=F SortEE=F KeepMc=T.
         3973 words used for storage of precomputed grid.
 Two-electron integrals replicated using symmetry.
          MDV=     671088640 using IRadAn=       1.
          Solving linear equations simultaneously, MaxMat=     380.
 FoF2E skips out because all densities are zero.
 CalDSu exits because no D1Ps are significant.
 FoFJK:  IHMeth= 1 ICntrl=       0 DoSepK=F KAlg= 0 I1Cent=           0 FoldK=F
 IRaf= 950000000 NMat=      39 IRICut=      97 DoRegI=T DoRafI=T ISym2E= 2 IDoP0=3 IntGTp=3.
 FoFCou: FMM=F IPFlag=           0 FMFlag=      100000 FMFlg1=           0
         NFxFlg=           0 DoJE=F BraDBF=F KetDBF=F FulRan=T
         wScrn=  0.000000 ICntrl=         0 IOpCl=  1 I1Cent=           0 NGrid=           0
         NMat0=   39 NMatS0=     39 NMatT0=    0 NMatD0=   39 NMtDS0=    0 NMtDT0=    0
 Integrals replicated using symmetry in FoFCou.
 Raff kept on since  92.83% of shell-pairs survive, threshold=   0.20 IRatSp=93.
          There are    42 degrees of freedom in the 1st order CPHF.  IDoFFX=6 NUNeed=     0.
     36 vectors produced by pass  0 Test12= 2.72D-14 2.38D-09 XBig12= 1.57D-01 8.44D-02.
 AX will form    36 AO Fock derivatives at one time.
     36 vectors produced by pass  1 Test12= 2.72D-14 2.38D-09 XBig12= 1.67D-02 3.94D-02.
     36 vectors produced by pass  2 Test12= 2.72D-14 2.38D-09 XBig12= 5.51D-04 3.93D-03.
     36 vectors produced by pass  3 Test12= 2.72D-14 2.38D-09 XBig12= 5.20D-06 4.55D-04.
     36 vectors produced by pass  4 Test12= 2.72D-14 2.38D-09 XBig12= 6.53D-08 3.58D-05.
     36 vectors produced by pass  5 Test12= 2.72D-14 2.38D-09 XBig12= 6.05D-10 3.00D-06.
     36 vectors produced by pass  6 Test12= 2.72D-14 2.38D-09 XBig12= 4.89D-12 2.83D-07.
     18 vectors produced by pass  7 Test12= 2.72D-14 2.38D-09 XBig12= 4.83D-14 2.52D-08.
 InvSVY:  IOpt=1 It=  1 EMax= 1.78D-15
 Solved reduced A of dimension   270 with    36 vectors.
 End of Minotr F.D. properties file   721 does not exist.
 End of Minotr F.D. properties file   722 does not exist.
 End of Minotr F.D. properties file   788 does not exist.
 Leave Link 1002 at Fri Mar 29 16:21:40 2019, MaxMem=   671088640 cpu:            2350.7 elap:             117.6
 (Enter /shared/centos7/gaussian/g16/l601.exe)
 Copying SCF densities to generalized density rwf, IOpCl= 1 IROHF=0.

 **********************************************************************

            Population analysis using the SCF density.

 **********************************************************************

 Orbital symmetries:
 Alpha Orbitals:
       Occupied  (A) (A) (A) (A) (A) (A) (A) (A) (A) (A) (A) (A)
                 (A) (A) (A) (A) (A) (A) (A) (A) (A) (A) (A) (A)
       Virtual   (A) (A) (A) (A) (A) (A) (A) (A) (A) (A) (A) (A)
                 (A) (A) (A) (A) (A) (A) (A) (A) (A) (A) (A) (A)
                 (A) (A) (A) (A) (A) (A) (A) (A) (A) (A) (A) (A)
                 (A) (A) (A) (A) (A) (A) (A) (A) (A) (A) (A) (A)
                 (A) (A) (A) (A) (A) (A) (A) (A) (A) (A) (A) (A)
                 (A) (A) (A) (A) (A) (A) (A) (A) (A) (A) (A) (A)
                 (A) (A) (A) (A) (A) (A) (A) (A) (A) (A) (A) (A)
                 (A) (A) (A) (A) (A) (A) (A) (A) (A) (A) (A) (A)
                 (A) (A) (A) (A) (A) (A) (A) (A) (A) (A) (A) (A)
                 (A) (A) (A) (A) (A) (A) (A) (A) (A) (A) (A) (A)
                 (A) (A) (A) (A) (A) (A) (A) (A) (A) (A) (A) (A)
                 (A) (A) (A) (A) (A) (A) (A) (A) (A) (A) (A) (A)
                 (A) (A) (A) (A) (A) (A) (A) (A) (A) (A) (A) (A)
                 (A) (A) (A) (A) (A) (A) (A) (A) (A) (A) (A) (A)
                 (A) (A) (A) (A) (A) (A) (A) (A) (A) (A) (A) (A)
                 (A) (A) (A) (A) (A) (A) (A) (A) (A) (A) (A) (A)
                 (A) (A) (A) (A) (A) (A) (A) (A) (A) (A) (A) (A)
                 (A) (A) (A) (A) (A) (A) (A) (A) (A) (A) (A) (A)
                 (A) (A) (A) (A) (A) (A) (A) (A) (A) (A) (A) (A)
                 (A) (A) (A) (A) (A) (A) (A) (A) (A) (A) (A) (A)
                 (A) (A) (A)
 Beta  Orbitals:
       Occupied  (A) (A) (A) (A) (A) (A) (A) (A) (A) (A) (A) (A)
                 (A) (A) (A) (A) (A) (A) (A) (A) (A) (A) (A)
       Virtual   (A) (A) (A) (A) (A) (A) (A) (A) (A) (A) (A) (A)
                 (A) (A) (A) (A) (A) (A) (A) (A) (A) (A) (A) (A)
                 (A) (A) (A) (A) (A) (A) (A) (A) (A) (A) (A) (A)
                 (A) (A) (A) (A) (A) (A) (A) (A) (A) (A) (A) (A)
                 (A) (A) (A) (A) (A) (A) (A) (A) (A) (A) (A) (A)
                 (A) (A) (A) (A) (A) (A) (A) (A) (A) (A) (A) (A)
                 (A) (A) (A) (A) (A) (A) (A) (A) (A) (A) (A) (A)
                 (A) (A) (A) (A) (A) (A) (A) (A) (A) (A) (A) (A)
                 (A) (A) (A) (A) (A) (A) (A) (A) (A) (A) (A) (A)
                 (A) (A) (A) (A) (A) (A) (A) (A) (A) (A) (A) (A)
                 (A) (A) (A) (A) (A) (A) (A) (A) (A) (A) (A) (A)
                 (A) (A) (A) (A) (A) (A) (A) (A) (A) (A) (A) (A)
                 (A) (A) (A) (A) (A) (A) (A) (A) (A) (A) (A) (A)
                 (A) (A) (A) (A) (A) (A) (A) (A) (A) (A) (A) (A)
                 (A) (A) (A) (A) (A) (A) (A) (A) (A) (A) (A) (A)
                 (A) (A) (A) (A) (A) (A) (A) (A) (A) (A) (A) (A)
                 (A) (A) (A) (A) (A) (A) (A) (A) (A) (A) (A) (A)
                 (A) (A) (A) (A) (A) (A) (A) (A) (A) (A) (A) (A)
                 (A) (A) (A) (A) (A) (A) (A) (A) (A) (A) (A) (A)
                 (A) (A) (A) (A) (A) (A) (A) (A) (A) (A) (A) (A)
                 (A) (A) (A) (A)
 The electronic state is 2-A.
 Alpha  occ. eigenvalues --  -19.67265 -19.61669 -10.67337 -10.59189 -10.55914
 Alpha  occ. eigenvalues --  -10.54569  -1.24300  -1.14797  -0.90032  -0.82564
 Alpha  occ. eigenvalues --   -0.72520  -0.64884  -0.59879  -0.58266  -0.56704
 Alpha  occ. eigenvalues --   -0.51805  -0.51650  -0.46834  -0.45801  -0.45167
 Alpha  occ. eigenvalues --   -0.43394  -0.38345  -0.36114  -0.26710
 Alpha virt. eigenvalues --    0.01238   0.02420   0.03754   0.04269   0.04861
 Alpha virt. eigenvalues --    0.05053   0.05747   0.07882   0.08156   0.09394
 Alpha virt. eigenvalues --    0.09656   0.09707   0.11681   0.12108   0.14955
 Alpha virt. eigenvalues --    0.16290   0.18169   0.19107   0.19945   0.21380
 Alpha virt. eigenvalues --    0.22418   0.23043   0.23074   0.23590   0.26228
 Alpha virt. eigenvalues --    0.27494   0.28015   0.29175   0.29764   0.30344
 Alpha virt. eigenvalues --    0.31766   0.33480   0.34105   0.36878   0.39591
 Alpha virt. eigenvalues --    0.41129   0.44051   0.46798   0.47940   0.49014
 Alpha virt. eigenvalues --    0.50574   0.52556   0.53446   0.54073   0.54491
 Alpha virt. eigenvalues --    0.55168   0.56343   0.57235   0.58217   0.61073
 Alpha virt. eigenvalues --    0.63446   0.63717   0.64513   0.65543   0.66915
 Alpha virt. eigenvalues --    0.68098   0.70222   0.71013   0.75508   0.78511
 Alpha virt. eigenvalues --    0.79489   0.81538   0.86089   0.88398   0.89317
 Alpha virt. eigenvalues --    0.91067   0.94429   0.94657   0.98006   1.00569
 Alpha virt. eigenvalues --    1.03347   1.05133   1.05927   1.06901   1.09654
 Alpha virt. eigenvalues --    1.10202   1.12697   1.13475   1.14119   1.18813
 Alpha virt. eigenvalues --    1.19122   1.20284   1.21846   1.22384   1.25546
 Alpha virt. eigenvalues --    1.25613   1.26086   1.27441   1.33276   1.33954
 Alpha virt. eigenvalues --    1.35658   1.38686   1.40491   1.41097   1.42903
 Alpha virt. eigenvalues --    1.43518   1.43949   1.46339   1.48255   1.51167
 Alpha virt. eigenvalues --    1.54371   1.56923   1.58412   1.60918   1.64577
 Alpha virt. eigenvalues --    1.67741   1.67800   1.72754   1.78421   1.85306
 Alpha virt. eigenvalues --    1.86738   1.92826   2.05695   2.09317   2.12024
 Alpha virt. eigenvalues --    2.32773   2.35317   2.39092   2.44338   2.49932
 Alpha virt. eigenvalues --    2.55608   2.56053   2.57355   2.68360   2.72477
 Alpha virt. eigenvalues --    2.73165   2.76432   2.77044   2.77403   2.80567
 Alpha virt. eigenvalues --    2.82978   2.88512   2.95435   2.95895   2.96431
 Alpha virt. eigenvalues --    2.98104   2.99114   3.00337   3.03799   3.08167
 Alpha virt. eigenvalues --    3.09003   3.10172   3.12250   3.13578   3.16588
 Alpha virt. eigenvalues --    3.20425   3.20755   3.23833   3.25491   3.26497
 Alpha virt. eigenvalues --    3.27319   3.28648   3.30782   3.39917   3.40265
 Alpha virt. eigenvalues --    3.41110   3.46926   3.47040   3.52286   3.52520
 Alpha virt. eigenvalues --    3.52648   3.53357   3.54468   3.58438   3.59111
 Alpha virt. eigenvalues --    3.64792   3.66291   3.68767   3.72533   3.80165
 Alpha virt. eigenvalues --    3.86639   3.86996   3.88332   3.90641   3.94367
 Alpha virt. eigenvalues --    3.97116   3.98244   4.02816   4.04532   4.09384
 Alpha virt. eigenvalues --    4.11973   4.14085   4.16140   4.16210   4.20219
 Alpha virt. eigenvalues --    4.23404   4.29187   4.29858   4.30827   4.32044
 Alpha virt. eigenvalues --    4.35762   4.39761   4.41599   4.42983   4.43136
 Alpha virt. eigenvalues --    4.54248   4.56865   4.67748   4.91464   4.96503
 Alpha virt. eigenvalues --    5.02067   5.07818   5.11100   5.14386   5.20134
 Alpha virt. eigenvalues --    5.21456   5.23265   5.29021   5.36496   5.44592
 Alpha virt. eigenvalues --    5.44662   5.50004   5.52143   5.55857   5.56292
 Alpha virt. eigenvalues --    5.60165   5.60899   5.67659   5.74284   5.80175
 Alpha virt. eigenvalues --    6.00203   6.10214   6.38735   6.46185   6.69543
 Alpha virt. eigenvalues --    6.82696   6.95585   7.07635   7.11273   7.17033
 Alpha virt. eigenvalues --    7.19010   7.25249   7.31199   7.54513   7.67131
 Alpha virt. eigenvalues --    7.77335   7.83525  24.25835  24.43532  24.47926
 Alpha virt. eigenvalues --   24.86050  50.17698  50.31494
  Beta  occ. eigenvalues --  -19.67256 -19.61677 -10.67333 -10.59190 -10.55980
  Beta  occ. eigenvalues --  -10.53878  -1.24287  -1.14798  -0.89036  -0.81780
  Beta  occ. eigenvalues --   -0.70017  -0.64400  -0.59480  -0.58064  -0.56625
  Beta  occ. eigenvalues --   -0.51303  -0.50696  -0.45985  -0.45099  -0.44558
  Beta  occ. eigenvalues --   -0.43283  -0.38273  -0.36111
  Beta virt. eigenvalues --   -0.02827   0.00930   0.02362   0.03670   0.04133
  Beta virt. eigenvalues --    0.04840   0.04909   0.05779   0.07712   0.08152
  Beta virt. eigenvalues --    0.08410   0.09585   0.09941   0.12084   0.12324
  Beta virt. eigenvalues --    0.14226   0.14970   0.18212   0.18879   0.20153
  Beta virt. eigenvalues --    0.21685   0.22511   0.23134   0.23399   0.23845
  Beta virt. eigenvalues --    0.26130   0.27622   0.28002   0.29521   0.30117
  Beta virt. eigenvalues --    0.30343   0.32029   0.33542   0.34172   0.37035
  Beta virt. eigenvalues --    0.39690   0.41175   0.44014   0.46968   0.48146
  Beta virt. eigenvalues --    0.49216   0.50635   0.53555   0.54012   0.54124
  Beta virt. eigenvalues --    0.54920   0.55475   0.56458   0.57719   0.59272
  Beta virt. eigenvalues --    0.61414   0.63629   0.64264   0.64968   0.65909
  Beta virt. eigenvalues --    0.66710   0.68065   0.70155   0.70874   0.75525
  Beta virt. eigenvalues --    0.77792   0.79351   0.81442   0.85918   0.88217
  Beta virt. eigenvalues --    0.89322   0.90715   0.93474   0.93974   0.97953
  Beta virt. eigenvalues --    1.00536   1.03409   1.05153   1.05189   1.06772
  Beta virt. eigenvalues --    1.09684   1.10300   1.12701   1.13399   1.14385
  Beta virt. eigenvalues --    1.18802   1.18849   1.20293   1.21835   1.22285
  Beta virt. eigenvalues --    1.25229   1.25676   1.26302   1.27510   1.33376
  Beta virt. eigenvalues --    1.34404   1.35979   1.38725   1.40890   1.41131
  Beta virt. eigenvalues --    1.42882   1.43730   1.43949   1.47031   1.47654
  Beta virt. eigenvalues --    1.51311   1.54771   1.58007   1.58482   1.61166
  Beta virt. eigenvalues --    1.65455   1.67753   1.67845   1.72748   1.78616
  Beta virt. eigenvalues --    1.85351   1.86686   1.92837   2.05765   2.09608
  Beta virt. eigenvalues --    2.12108   2.32781   2.35370   2.39095   2.44645
  Beta virt. eigenvalues --    2.49940   2.56236   2.57073   2.57453   2.68929
  Beta virt. eigenvalues --    2.73487   2.76765   2.77542   2.77608   2.79421
  Beta virt. eigenvalues --    2.82917   2.85093   2.91213   2.95934   2.96238
  Beta virt. eigenvalues --    2.99245   3.00636   3.01650   3.04068   3.05549
  Beta virt. eigenvalues --    3.09446   3.10003   3.10768   3.13701   3.15831
  Beta virt. eigenvalues --    3.17802   3.21591   3.21802   3.25601   3.26883
  Beta virt. eigenvalues --    3.28910   3.29933   3.31222   3.35885   3.40394
  Beta virt. eigenvalues --    3.41709   3.42732   3.47513   3.48950   3.52791
  Beta virt. eigenvalues --    3.53291   3.53300   3.53740   3.59013   3.59073
  Beta virt. eigenvalues --    3.59569   3.65035   3.67368   3.70330   3.73674
  Beta virt. eigenvalues --    3.81053   3.87002   3.87243   3.89339   3.90983
  Beta virt. eigenvalues --    3.94483   3.97239   4.00206   4.02932   4.06708
  Beta virt. eigenvalues --    4.11109   4.12472   4.16678   4.16770   4.19418
  Beta virt. eigenvalues --    4.22378   4.24897   4.29785   4.30966   4.31025
  Beta virt. eigenvalues --    4.33420   4.36046   4.39987   4.43185   4.43377
  Beta virt. eigenvalues --    4.44373   4.56473   4.59333   4.68989   4.91875
  Beta virt. eigenvalues --    4.99417   5.05393   5.07812   5.12325   5.14405
  Beta virt. eigenvalues --    5.20116   5.23158   5.23272   5.29404   5.36693
  Beta virt. eigenvalues --    5.44618   5.47617   5.50335   5.54163   5.56265
  Beta virt. eigenvalues --    5.60081   5.60475   5.62976   5.68121   5.74279
  Beta virt. eigenvalues --    5.80414   6.00212   6.10306   6.38772   6.46191
  Beta virt. eigenvalues --    6.69557   6.82664   6.95563   7.07669   7.11294
  Beta virt. eigenvalues --    7.17048   7.19011   7.25235   7.31204   7.54512
  Beta virt. eigenvalues --    7.67124   7.77329   7.83538  24.26835  24.43550
  Beta virt. eigenvalues --   24.48534  24.86074  50.17689  50.31501
          Condensed to atoms (all electrons):
               1          2          3          4          5          6
     1  O    8.226127  -0.090055  -0.193913   0.147030   0.201697   0.005844
     2  O   -0.090055   8.187323   0.020019  -0.033119   0.357400  -0.032692
     3  C   -0.193913   0.020019   5.556980  -0.051684  -0.139405   0.044397
     4  C    0.147030  -0.033119  -0.051684   4.963197  -0.106971  -0.014863
     5  C    0.201697   0.357400  -0.139405  -0.106971   5.387771   0.149729
     6  C    0.005844  -0.032692   0.044397  -0.014863   0.149729   5.639837
     7  H    0.001767  -0.000365   0.439249   0.001160  -0.035759  -0.055181
     8  H    0.001768  -0.000365   0.439253   0.001159  -0.035766  -0.055181
     9  H   -0.035519  -0.004061  -0.001783   0.430295   0.002103  -0.000390
    10  H   -0.035519  -0.004061  -0.001783   0.430295   0.002103  -0.000390
    11  H   -0.059200   0.003653   0.002202   0.420105   0.017810   0.000530
    12  H   -0.000479   0.000697  -0.063284   0.000477   0.026127   0.415419
    13  H   -0.000383   0.001570  -0.035962  -0.000942  -0.003780   0.411179
               7          8          9         10         11         12
     1  O    0.001767   0.001768  -0.035519  -0.035519  -0.059200  -0.000479
     2  O   -0.000365  -0.000365  -0.004061  -0.004061   0.003653   0.000697
     3  C    0.439249   0.439253  -0.001783  -0.001783   0.002202  -0.063284
     4  C    0.001160   0.001159   0.430295   0.430295   0.420105   0.000477
     5  C   -0.035759  -0.035766   0.002103   0.002103   0.017810   0.026127
     6  C   -0.055181  -0.055181  -0.000390  -0.000390   0.000530   0.415419
     7  H    0.547197  -0.050919  -0.000113   0.000182   0.000012  -0.001925
     8  H   -0.050919   0.547199   0.000182  -0.000113   0.000012  -0.001925
     9  H   -0.000113   0.000182   0.531786  -0.037350  -0.024807  -0.000001
    10  H    0.000182  -0.000113  -0.037350   0.531786  -0.024807  -0.000001
    11  H    0.000012   0.000012  -0.024807  -0.024807   0.532045  -0.000001
    12  H   -0.001925  -0.001925  -0.000001  -0.000001  -0.000001   0.462880
    13  H    0.002824   0.002824  -0.000006  -0.000006   0.000002  -0.019599
              13
     1  O   -0.000383
     2  O    0.001570
     3  C   -0.035962
     4  C   -0.000942
     5  C   -0.003780
     6  C    0.411179
     7  H    0.002824
     8  H    0.002824
     9  H   -0.000006
    10  H   -0.000006
    11  H    0.000002
    12  H   -0.019599
    13  H    0.432578
          Atomic-Atomic Spin Densities.
               1          2          3          4          5          6
     1  O    0.005156  -0.000840   0.003069   0.001232  -0.005516   0.000384
     2  O   -0.000840  -0.007209   0.002267  -0.000516   0.002608  -0.000390
     3  C    0.003069   0.002267  -0.080077  -0.000894  -0.000754  -0.051377
     4  C    0.001232  -0.000516  -0.000894   0.000813   0.000760  -0.002253
     5  C   -0.005516   0.002608  -0.000754   0.000760   0.019068  -0.002935
     6  C    0.000384  -0.000390  -0.051377  -0.002253  -0.002935   1.196901
     7  H   -0.000788  -0.000141   0.014679   0.000026   0.006684  -0.033275
     8  H   -0.000788  -0.000141   0.014687   0.000026   0.006678  -0.033278
     9  H   -0.000145   0.000010   0.000185  -0.000262   0.000071  -0.000056
    10  H   -0.000146   0.000010   0.000185  -0.000262   0.000071  -0.000056
    11  H   -0.000090  -0.000038   0.000037   0.000053  -0.000053   0.000031
    12  H   -0.000007  -0.000183  -0.003317   0.000123   0.005702  -0.000417
    13  H    0.000292   0.002057   0.012465  -0.000031  -0.005517  -0.010563
               7          8          9         10         11         12
     1  O   -0.000788  -0.000788  -0.000145  -0.000146  -0.000090  -0.000007
     2  O   -0.000141  -0.000141   0.000010   0.000010  -0.000038  -0.000183
     3  C    0.014679   0.014687   0.000185   0.000185   0.000037  -0.003317
     4  C    0.000026   0.000026  -0.000262  -0.000262   0.000053   0.000123
     5  C    0.006684   0.006678   0.000071   0.000071  -0.000053   0.005702
     6  C   -0.033275  -0.033278  -0.000056  -0.000056   0.000031  -0.000417
     7  H    0.076955  -0.023506  -0.000046   0.000081   0.000004   0.000286
     8  H   -0.023506   0.076959   0.000081  -0.000046   0.000004   0.000286
     9  H   -0.000046   0.000081   0.000807  -0.000305  -0.000008   0.000000
    10  H    0.000081  -0.000046  -0.000305   0.000807  -0.000008   0.000000
    11  H    0.000004   0.000004  -0.000008  -0.000008   0.000009  -0.000000
    12  H    0.000286   0.000286   0.000000   0.000000  -0.000000  -0.048015
    13  H   -0.000154  -0.000154  -0.000001  -0.000001  -0.000000   0.004567
              13
     1  O    0.000292
     2  O    0.002057
     3  C    0.012465
     4  C   -0.000031
     5  C   -0.005517
     6  C   -0.010563
     7  H   -0.000154
     8  H   -0.000154
     9  H   -0.000001
    10  H   -0.000001
    11  H   -0.000000
    12  H    0.004567
    13  H   -0.043066
 Mulliken charges and spin densities:
               1          2
     1  O   -0.169165   0.001813
     2  O   -0.405945  -0.002506
     3  C   -0.014284  -0.088843
     4  C   -0.186138  -0.001184
     5  C    0.176940   0.026867
     6  C   -0.508236   1.062717
     7  H    0.151872   0.040806
     8  H    0.151872   0.040809
     9  H    0.139664   0.000331
    10  H    0.139664   0.000331
    11  H    0.132441  -0.000059
    12  H    0.181615  -0.040974
    13  H    0.209702  -0.040107
 Sum of Mulliken charges =  -0.00000   1.00000
 Mulliken charges and spin densities with hydrogens summed into heavy atoms:
               1          2
     1  O   -0.169165   0.001813
     2  O   -0.405945  -0.002506
     3  C    0.289459  -0.007228
     4  C    0.225631  -0.000581
     5  C    0.176940   0.026867
     6  C   -0.116919   0.981636
 APT charges:
               1
     1  O   -0.035643
     2  O   -0.395058
     3  C   -0.559365
     4  C   -1.229775
     5  C    0.243261
     6  C   -1.094891
     7  H    0.381009
     8  H    0.381008
     9  H    0.357619
    10  H    0.357619
    11  H    0.569167
    12  H    0.692857
    13  H    0.332193
 Sum of APT charges =  -0.00000
 APT charges with hydrogens summed into heavy atoms:
               1
     1  O   -0.035643
     2  O   -0.395058
     3  C    0.202653
     4  C    0.054630
     5  C    0.243261
     6  C   -0.069842
 Electronic spatial extent (au):  <R**2>=            656.8120
 Charge=             -0.0000 electrons
 Dipole moment (field-independent basis, Debye):
    X=              0.6456    Y=             -1.8237    Z=              0.0000  Tot=              1.9346
 Quadrupole moment (field-independent basis, Debye-Ang):
   XX=            -30.3907   YY=            -40.0522   ZZ=            -36.4466
   XY=              1.7541   XZ=             -0.0000   YZ=              0.0000
 Traceless Quadrupole moment (field-independent basis, Debye-Ang):
   XX=              5.2392   YY=             -4.4224   ZZ=             -0.8168
   XY=              1.7541   XZ=             -0.0000   YZ=              0.0000
 Octapole moment (field-independent basis, Debye-Ang**2):
  XXX=             18.7101  YYY=             -3.3982  ZZZ=              0.0001  XYY=             -0.3483
  XXY=             -1.6024  XXZ=             -0.0001  XZZ=              5.6428  YZZ=             -0.2860
  YYZ=              0.0000  XYZ=             -0.0001
 Hexadecapole moment (field-independent basis, Debye-Ang**3):
 XXXX=           -622.9478 YYYY=           -161.9082 ZZZZ=            -50.2219 XXXY=              0.2376
 XXXZ=              0.0005 YYYX=             -3.0754 YYYZ=              0.0002 ZZZX=             -0.0002
 ZZZY=             -0.0000 XXYY=           -132.2293 XXZZ=           -128.5414 YYZZ=            -32.9114
 XXYZ=              0.0003 YYXZ=             -0.0001 ZZXY=              3.6984
 N-N= 2.370910136045D+02 E-N=-1.192521449332D+03  KE= 3.059336700743D+02
  Exact polarizability:   0.000   0.000   0.000   0.000   0.000   0.000
 Approx polarizability:  62.824  -1.916  67.440   0.000  -0.000  52.316
                          Isotropic Fermi Contact Couplings
        Atom                 a.u.       MegaHertz       Gauss      10(-4) cm-1
     1  O(17)             -0.00116       0.70583       0.25186       0.23544
     2  O(17)             -0.00156       0.94838       0.33841       0.31635
     3  C(13)             -0.03543     -39.83386     -14.21371     -13.28714
     4  C(13)             -0.00036      -0.40980      -0.14623      -0.13669
     5  C(13)              0.00137       1.53853       0.54899       0.51320
     6  C(13)              0.16618     186.81892      66.66164      62.31608
     7  H(1)               0.02120      94.78069      33.82011      31.61544
     8  H(1)               0.02121      94.78815      33.82277      31.61792
     9  H(1)               0.00008       0.35495       0.12666       0.11840
    10  H(1)               0.00008       0.35495       0.12666       0.11840
    11  H(1)              -0.00000      -0.01955      -0.00698      -0.00652
    12  H(1)              -0.01633     -73.01177     -26.05241     -24.35410
    13  H(1)              -0.01672     -74.71424     -26.65990     -24.92199
 --------------------------------------------------------
       Center         ----  Spin Dipole Couplings  ----
                      3XX-RR        3YY-RR        3ZZ-RR
 --------------------------------------------------------
     1   Atom       -0.006570     -0.012043      0.018613
     2   Atom        0.008064      0.004180     -0.012243
     3   Atom        0.000339     -0.009069      0.008729
     4   Atom        0.002312     -0.001129     -0.001183
     5   Atom        0.011030     -0.009607     -0.001423
     6   Atom       -0.555527     -0.553774      1.109302
     7   Atom        0.001569      0.005106     -0.006675
     8   Atom        0.001569      0.005106     -0.006675
     9   Atom        0.002079     -0.001035     -0.001044
    10   Atom        0.002079     -0.001035     -0.001044
    11   Atom        0.001700     -0.000871     -0.000829
    12   Atom        0.048477     -0.044407     -0.004071
    13   Atom       -0.072825      0.076246     -0.003421
 --------------------------------------------------------
                        XY            XZ            YZ
 --------------------------------------------------------
     1   Atom       -0.000938      0.000001     -0.000000
     2   Atom        0.006460      0.000000     -0.000000
     3   Atom       -0.010280      0.000000     -0.000000
     4   Atom        0.000034      0.000000     -0.000000
     5   Atom        0.000162      0.000001      0.000000
     6   Atom        0.004286     -0.000030     -0.000028
     7   Atom       -0.011840     -0.004993      0.007417
     8   Atom       -0.011840      0.004993     -0.007418
     9   Atom        0.000507      0.000555      0.000082
    10   Atom        0.000507     -0.000555     -0.000082
    11   Atom       -0.000280      0.000000     -0.000000
    12   Atom        0.060043      0.000001      0.000000
    13   Atom        0.012143     -0.000001      0.000002
 --------------------------------------------------------


 ---------------------------------------------------------------------------------
              Anisotropic Spin Dipole Couplings in Principal Axis System
 ---------------------------------------------------------------------------------

       Atom             a.u.   MegaHertz   Gauss  10(-4) cm-1        Axes

              Baa    -0.0122     0.883     0.315     0.294  0.1644  0.9864  0.0000
     1 O(17)  Bbb    -0.0064     0.464     0.166     0.155  0.9864 -0.1644 -0.0000
              Bcc     0.0186    -1.347    -0.481    -0.449  0.0000 -0.0000  1.0000
 
              Baa    -0.0122     0.886     0.316     0.296 -0.0000  0.0000  1.0000
     2 O(17)  Bbb    -0.0006     0.045     0.016     0.015 -0.5967  0.8025 -0.0000
              Bcc     0.0129    -0.931    -0.332    -0.311  0.8025  0.5967  0.0000
 
              Baa    -0.0157    -2.103    -0.750    -0.701  0.5403  0.8415  0.0000
     3 C(13)  Bbb     0.0069     0.931     0.332     0.311  0.8415 -0.5403 -0.0002
              Bcc     0.0087     1.171     0.418     0.391  0.0002 -0.0001  1.0000
 
              Baa    -0.0012    -0.159    -0.057    -0.053 -0.0000  0.0000  1.0000
     4 C(13)  Bbb    -0.0011    -0.152    -0.054    -0.051 -0.0099  1.0000 -0.0000
              Bcc     0.0023     0.310     0.111     0.104  1.0000  0.0099  0.0000
 
              Baa    -0.0096    -1.289    -0.460    -0.430 -0.0078  1.0000 -0.0000
     5 C(13)  Bbb    -0.0014    -0.191    -0.068    -0.064 -0.0001  0.0000  1.0000
              Bcc     0.0110     1.480     0.528     0.494  1.0000  0.0078  0.0001
 
              Baa    -0.5590   -75.016   -26.768   -25.023  0.7747 -0.6323  0.0000
     6 C(13)  Bbb    -0.5503   -73.842   -26.349   -24.631  0.6323  0.7747  0.0000
              Bcc     1.1093   148.858    53.116    49.654 -0.0000 -0.0000  1.0000
 
              Baa    -0.0104    -5.540    -1.977    -1.848 -0.1911 -0.5389  0.8204
     7 H(1)   Bbb    -0.0081    -4.304    -1.536    -1.436  0.7726  0.4330  0.4643
              Bcc     0.0185     9.845     3.513     3.284 -0.6054  0.7226  0.3336
 
              Baa    -0.0104    -5.541    -1.977    -1.848  0.1911  0.5389  0.8204
     8 H(1)   Bbb    -0.0081    -4.304    -1.536    -1.436  0.7726  0.4329 -0.4644
              Bcc     0.0185     9.845     3.513     3.284 -0.6054  0.7226 -0.3336
 
              Baa    -0.0011    -0.609    -0.217    -0.203 -0.1958  0.1905  0.9620
     9 H(1)   Bbb    -0.0011    -0.594    -0.212    -0.198 -0.1164  0.9695 -0.2157
              Bcc     0.0023     1.203     0.429     0.401  0.9737  0.1542  0.1677
 
              Baa    -0.0011    -0.609    -0.217    -0.203  0.1958 -0.1903  0.9620
    10 H(1)   Bbb    -0.0011    -0.594    -0.212    -0.198 -0.1165  0.9695  0.2155
              Bcc     0.0023     1.203     0.429     0.401  0.9737  0.1542 -0.1677
 
              Baa    -0.0009    -0.481    -0.172    -0.160  0.1071  0.9943  0.0000
    11 H(1)   Bbb    -0.0008    -0.442    -0.158    -0.148 -0.0000 -0.0000  1.0000
              Bcc     0.0017     0.923     0.329     0.308  0.9943 -0.1071  0.0000
 
              Baa    -0.0739   -39.415   -14.064   -13.147 -0.4406  0.8977  0.0000
    12 H(1)   Bbb    -0.0041    -2.172    -0.775    -0.724 -0.0000 -0.0000  1.0000
              Bcc     0.0779    41.587    14.839    13.872  0.8977  0.4406  0.0000
 
              Baa    -0.0738   -39.380   -14.052   -13.136  0.9967 -0.0807  0.0000
    13 H(1)   Bbb    -0.0034    -1.825    -0.651    -0.609 -0.0000 -0.0000  1.0000
              Bcc     0.0772    41.206    14.703    13.745  0.0807  0.9967  0.0000
 

 ---------------------------------------------------------------------------------

 No NMR shielding tensors so no spin-rotation constants.
 Leave Link  601 at Fri Mar 29 16:21:40 2019, MaxMem=   671088640 cpu:               8.1 elap:               0.4
 (Enter /shared/centos7/gaussian/g16/l701.exe)
 ... and contract with generalized density number  0.
 Compute integral second derivatives.
 Leave Link  701 at Fri Mar 29 16:21:40 2019, MaxMem=   671088640 cpu:               5.2 elap:               0.3
 (Enter /shared/centos7/gaussian/g16/l702.exe)
 L702 exits ... SP integral derivatives will be done elsewhere.
 Leave Link  702 at Fri Mar 29 16:21:40 2019, MaxMem=   671088640 cpu:               0.3 elap:               0.0
 (Enter /shared/centos7/gaussian/g16/l703.exe)
 Integral derivatives from FoFJK, PRISM(SPDF).
 Compute integral second derivatives, UseDBF=F ICtDFT=           0.
 Calling FoFJK, ICntrl=    100147 FMM=F ISym2X=0 I1Cent= 0 IOpClX= 1 NMat=1 NMatS=1 NMatT=0.
 FoFJK:  IHMeth= 1 ICntrl=  100147 DoSepK=F KAlg= 0 I1Cent=           0 FoldK=F
 IRaf=         0 NMat=       1 IRICut=       1 DoRegI=T DoRafI=F ISym2E= 0 IDoP0=0 IntGTp=1.
 FoFCou: FMM=F IPFlag=           0 FMFlag=      100000 FMFlg1=         800
         NFxFlg=           0 DoJE=F BraDBF=F KetDBF=F FulRan=T
         wScrn=  0.000000 ICntrl=    100147 IOpCl=  1 I1Cent=           0 NGrid=           0
         NMat0=    1 NMatS0=      1 NMatT0=    0 NMatD0=    1 NMtDS0=    0 NMtDT0=    0
 Symmetry not used in FoFCou.
 Leave Link  703 at Fri Mar 29 16:23:05 2019, MaxMem=   671088640 cpu:            1688.6 elap:              84.5
 (Enter /shared/centos7/gaussian/g16/l716.exe)
 Dipole        = 2.53984317D-01-7.17489743D-01 5.05230992D-06
 Polarizability= 0.00000000D+00 0.00000000D+00 0.00000000D+00
                 0.00000000D+00 0.00000000D+00 0.00000000D+00
 ***** Axes restored to original set *****
 -------------------------------------------------------------------
 Center     Atomic                   Forces (Hartrees/Bohr)
 Number     Number              X              Y              Z
 -------------------------------------------------------------------
      1        8           0.000000147    0.000000260    0.000000002
      2        8          -0.000000318    0.000000040    0.000000006
      3        6           0.000000121   -0.000000295   -0.000000012
      4        6          -0.000000020    0.000000526    0.000000010
      5        6          -0.000000032    0.000000025   -0.000000002
      6        6          -0.000000049   -0.000000579    0.000000009
      7        1           0.000000287   -0.000000265   -0.000000006
      8        1           0.000000281   -0.000000262   -0.000000015
      9        1          -0.000000164    0.000000558    0.000000006
     10        1          -0.000000164    0.000000566    0.000000006
     11        1           0.000000151    0.000000719    0.000000004
     12        1           0.000000054   -0.000000774    0.000000021
     13        1          -0.000000296   -0.000000518   -0.000000030
 -------------------------------------------------------------------
 Cartesian Forces:  Max     0.000000774 RMS     0.000000295
 Force constants in Cartesian coordinates: 
                1             2             3             4             5 
      1  0.547829D+00
      2 -0.275964D-01  0.376164D+00
      3 -0.290621D-03  0.226344D-02  0.799082D-01
      4  0.194173D-02  0.597195D-01  0.460199D-03  0.120307D+00
      5  0.667331D-01 -0.892391D-01 -0.925195D-03  0.332570D-01  0.894295D+00
      6  0.513686D-03 -0.924009D-03  0.306114D-01  0.238679D-03  0.655808D-02
      7 -0.475949D-01 -0.123056D-01 -0.837600D-04  0.381040D-02 -0.112761D-01
      8  0.192779D-01  0.130949D-01  0.155962D-04 -0.322602D-01 -0.380205D-01
      9  0.157010D-03  0.209632D-04  0.106123D-01 -0.242295D-03 -0.484997D-03
     10 -0.181480D+00 -0.492836D-01 -0.356146D-03  0.357760D-02 -0.174137D-01
     11 -0.780694D-01 -0.130669D+00 -0.469512D-03  0.558878D-02 -0.743340D-02
     12 -0.575608D-03 -0.474438D-03 -0.673325D-01  0.408964D-04 -0.534333D-05
     13 -0.236165D+00  0.583597D-01  0.473403D-03 -0.123220D+00 -0.758200D-01
     14  0.688152D-01 -0.161322D+00 -0.709478D-03 -0.567097D-01 -0.761532D+00
     15  0.553185D-03 -0.707656D-03 -0.698117D-01 -0.425392D-03 -0.516185D-02
     16 -0.483667D-02 -0.199083D-02 -0.141821D-04 -0.200734D-03  0.594529D-02
     17 -0.746757D-02 -0.231210D-02 -0.232908D-04 -0.163783D-02 -0.290105D-02
     18 -0.559749D-04 -0.242904D-04  0.917822D-03 -0.123519D-04 -0.261722D-04
     19 -0.168795D-02  0.854682D-03  0.198474D-02 -0.350006D-02 -0.331330D-02
     20  0.149104D-02  0.876291D-03  0.121480D-02 -0.319549D-02 -0.151366D-02
     21 -0.409493D-04  0.627631D-03  0.682243D-03  0.234988D-03  0.158487D-02
     22 -0.168859D-02  0.884638D-03 -0.197071D-02 -0.350132D-02 -0.325464D-02
     23  0.148978D-02  0.904291D-03 -0.121194D-02 -0.319231D-02 -0.145092D-02
     24  0.644533D-04 -0.624515D-03  0.654893D-03 -0.282660D-03 -0.159606D-02
     25 -0.191088D-01 -0.232519D-01 -0.285853D-01 -0.328156D-04  0.338514D-02
     26 -0.126627D-01 -0.118381D-01 -0.116638D-01 -0.240010D-03  0.105969D-02
     27 -0.487074D-02  0.149170D-02  0.670450D-02  0.126984D-02  0.153413D-02
     28 -0.190975D-01 -0.236856D-01  0.282363D-01 -0.332041D-04  0.338300D-02
     29 -0.127316D-01 -0.119889D-01  0.113832D-01 -0.220706D-03  0.108589D-02
     30  0.468600D-02 -0.176861D-02  0.684402D-02 -0.127328D-02 -0.152145D-02
     31 -0.369667D-01  0.204174D-01  0.161967D-03  0.134744D-02  0.117929D-02
     32 -0.214606D-01  0.149280D-01  0.116850D-03  0.214565D-02  0.196822D-02
     33 -0.157266D-03  0.109703D-03  0.798137D-04  0.162526D-04  0.948665D-05
     34 -0.228884D-02 -0.739140D-03 -0.522371D-05  0.949725D-04 -0.598062D-03
     35  0.172194D-02  0.114959D-02  0.781319D-05 -0.123167D-02  0.202628D-02
     36  0.135112D-04  0.825481D-05  0.838606D-04 -0.940769D-05  0.158647D-04
     37  0.114377D-02 -0.138283D-02 -0.107308D-04 -0.591090D-03 -0.220713D-02
     38  0.459331D-03  0.251748D-03  0.149808D-05 -0.202300D-02  0.165653D-02
     39  0.331279D-05  0.182045D-05  0.451337D-04 -0.154699D-04  0.186327D-04
                6             7             8             9            10 
      6  0.333756D-01
      7 -0.822150D-04  0.509710D+00
      8 -0.481197D-03 -0.256826D-01  0.533767D+00
      9  0.258435D-01 -0.198983D-03  0.355877D-03  0.488065D+00
     10 -0.134468D-03  0.143786D-02  0.404485D-02  0.313522D-04  0.516838D+00
     11 -0.927094D-05  0.378648D-02 -0.230561D-02 -0.538240D-04 -0.745607D-01
     12 -0.634335D-02  0.294146D-04 -0.539068D-04  0.466714D-02 -0.555207D-03
     13 -0.571123D-03 -0.165563D+00 -0.519156D-01 -0.382898D-03 -0.686343D-01
     14 -0.516513D-02 -0.452295D-01 -0.106179D+00 -0.104128D-03  0.671448D-02
     15 -0.827930D-01 -0.331878D-03 -0.102994D-03 -0.915382D-01  0.632596D-04
     16  0.454920D-04 -0.196913D+00  0.674000D-01  0.538398D-03 -0.111496D-03
     17 -0.248654D-04  0.769580D-01 -0.141729D+00 -0.792436D-03 -0.637089D-03
     18  0.397172D-03  0.611014D-03 -0.790747D-03 -0.395206D-01 -0.473999D-05
     19  0.385060D-02 -0.467005D-01  0.373943D-02  0.910202D-02  0.210884D-03
     20  0.251885D-02 -0.105258D-02 -0.128984D+00 -0.128122D+00 -0.391506D-03
     21 -0.641997D-03  0.209561D-02 -0.123640D+00 -0.202158D+00 -0.429470D-03
     22 -0.389973D-02 -0.467034D-01  0.391927D-02 -0.909485D-02  0.210882D-03
     23 -0.253024D-02 -0.977594D-03 -0.132831D+00  0.129177D+00 -0.398277D-03
     24 -0.703334D-03 -0.216174D-02  0.124693D+00 -0.198305D+00  0.423461D-03
     25 -0.799380D-04 -0.440230D-03  0.893035D-04  0.944031D-03 -0.500243D-01
     26  0.197694D-03 -0.233213D-03  0.204260D-04 -0.136536D-03 -0.855203D-02
     27  0.178448D-03 -0.119417D-03  0.163298D-03 -0.387916D-03 -0.144452D-01
     28  0.131607D-03 -0.440512D-03  0.103648D-03 -0.942536D-03 -0.500172D-01
     29 -0.183771D-03 -0.234960D-03  0.207493D-04  0.142840D-03 -0.872826D-02
     30  0.152644D-03  0.115866D-03 -0.157102D-03 -0.387950D-03  0.142495D-01
     31  0.887970D-05 -0.960499D-03  0.114936D-02  0.896447D-05 -0.172063D+00
     32  0.931819D-05 -0.610588D-03  0.714587D-03  0.389940D-05  0.149150D+00
     33  0.697879D-03 -0.445291D-05  0.359690D-05  0.217019D-03  0.115717D-02
     34 -0.457935D-05 -0.146855D-01 -0.129067D-01 -0.963000D-04  0.194759D-03
     35  0.159497D-04  0.179271D-01  0.112665D-01  0.894815D-04  0.148230D-03
     36 -0.377106D-04  0.138848D-03  0.940379D-04 -0.816915D-03  0.110385D-05
     37 -0.168902D-04  0.504320D-02  0.230412D-01  0.176083D-03 -0.140293D-03
     38  0.185917D-04 -0.106881D-02 -0.883547D-02 -0.959670D-04 -0.928551D-04
     39 -0.737311D-03 -0.830463D-05 -0.989941D-04  0.371033D-02  0.000000D+00
               11            12            13            14            15 
     11  0.591357D+00
     12 -0.732026D-05  0.593990D+00
     13  0.132217D-01  0.112872D-03  0.612538D+00
     14  0.245147D-01  0.171207D-03  0.596574D-01  0.103069D+01
     15  0.170034D-03  0.191322D-02  0.391061D-03  0.601095D-02  0.240917D+00
     16  0.102394D-02  0.793538D-05 -0.343841D-01  0.112647D-01  0.908495D-04
     17  0.990137D-03  0.366012D-05 -0.758181D-02  0.190476D-01  0.159791D-03
     18  0.335570D-05  0.528756D-03 -0.524395D-04  0.157001D-03 -0.177794D-02
     19 -0.525197D-05  0.397778D-03  0.397074D-02 -0.150869D-01 -0.266764D-01
     20 -0.746568D-04  0.781961D-03  0.520776D-03 -0.142234D-01 -0.176122D-01
     21 -0.248753D-05  0.217404D-03  0.856436D-03 -0.108858D-03 -0.104041D-03
     22  0.000000D+00 -0.397849D-03  0.397911D-02 -0.154914D-01  0.264423D-01
     23 -0.627199D-04 -0.786095D-03  0.539362D-03 -0.144900D-01  0.173933D-01
     24 -0.177321D-05  0.205463D-03 -0.849632D-03 -0.104901D-03  0.153833D-03
     25 -0.324757D-02 -0.636471D-02  0.425520D-02 -0.769152D-02 -0.172410D-02
     26 -0.133406D+00 -0.123671D+00  0.318181D-02 -0.133670D-02  0.280056D-03
     27 -0.125224D+00 -0.239211D+00  0.156816D-02 -0.306752D-02  0.600775D-03
     28 -0.330072D-02  0.625089D-02  0.425524D-02 -0.771586D-02  0.160539D-02
     29 -0.137225D+00  0.125229D+00  0.320525D-02 -0.137875D-02 -0.311329D-03
     30  0.126780D+00 -0.235399D+00 -0.152071D-02  0.303996D-02  0.642783D-03
     31  0.135292D+00  0.105153D-02 -0.154175D-02 -0.720407D-02 -0.546248D-04
     32 -0.205389D+00 -0.118500D-02 -0.291817D-02 -0.495961D-02 -0.389241D-04
     33 -0.118263D-02 -0.532763D-01 -0.219407D-04 -0.381985D-04  0.211401D-03
     34  0.398755D-03  0.301149D-05  0.104335D-05  0.462291D-02  0.353584D-04
     35 -0.247197D-03 -0.183226D-05  0.140298D-02 -0.613890D-02 -0.569377D-04
     36 -0.185973D-05 -0.113939D-04  0.110149D-04 -0.575528D-04  0.130892D-02
     37 -0.128791D-03  0.000000D+00  0.508060D-03  0.405428D-02  0.309360D-04
     38 -0.491684D-04  0.000000D+00 -0.185343D-02 -0.268860D-02 -0.222793D-04
     39  0.000000D+00  0.514228D-04 -0.142003D-04 -0.233584D-04  0.276955D-03
               16            17            18            19            20 
     16  0.594253D+00
     17  0.464111D-01  0.628608D+00
     18  0.271298D-03  0.446439D-02  0.433955D-01
     19 -0.205168D-02  0.192488D-01  0.162462D-01  0.508114D-01
     20  0.623128D-02 -0.142458D-01 -0.101509D-01 -0.559498D-02  0.147768D+00
     21  0.353080D-02  0.746773D-03  0.441280D-02 -0.590233D-02  0.135683D+00
     22 -0.205876D-02  0.194934D-01 -0.159490D-01  0.111535D-02  0.162025D-04
     23  0.628816D-02 -0.143844D-01  0.986244D-02  0.140429D-05  0.107521D-01
     24 -0.343379D-02 -0.103911D-02  0.455809D-02  0.622662D-03  0.159688D-01
     25 -0.202916D-04 -0.867153D-04  0.123373D-03  0.979666D-04  0.253938D-03
     26 -0.291345D-04 -0.393502D-04  0.563192D-04  0.626432D-05  0.404384D-04
     27 -0.322239D-04 -0.144626D-04  0.749195D-05  0.350850D-05  0.146401D-04
     28 -0.203312D-04 -0.848304D-04 -0.124675D-03 -0.118247D-03 -0.107777D-03
     29 -0.296434D-04 -0.387051D-04 -0.570132D-04  0.311519D-04 -0.178945D-04
     30  0.317829D-04  0.137862D-04  0.687739D-05 -0.751932D-04 -0.973693D-04
     31 -0.313384D-03 -0.443120D-03 -0.332701D-05 -0.251799D-04  0.166935D-04
     32 -0.147164D-03 -0.204905D-03 -0.151831D-05  0.322501D-04  0.209114D-04
     33 -0.106663D-05 -0.146501D-05 -0.267050D-05  0.162445D-04  0.610299D-05
     34 -0.297731D+00 -0.118117D+00 -0.857606D-03  0.355976D-03  0.111906D-04
     35 -0.120934D+00 -0.115999D+00 -0.809671D-03 -0.738128D-03  0.505821D-03
     36 -0.878804D-03 -0.809838D-03 -0.758984D-02 -0.371880D-03  0.564987D-03
     37 -0.556113D-01 -0.260551D-01 -0.191705D-03 -0.247876D-02  0.180121D-02
     38 -0.214341D-01 -0.356792D+00 -0.268323D-02  0.824574D-03 -0.904113D-03
     39 -0.156490D-03 -0.268293D-02 -0.533343D-02  0.802031D-03 -0.771019D-03
               21            22            23            24            25 
     21  0.223344D+00
     22 -0.631247D-03  0.508150D-01
     23 -0.154240D-01 -0.572984D-02  0.151914D+00
     24 -0.250372D-01  0.587284D-02 -0.136768D+00  0.219192D+00
     25  0.111611D-03 -0.118236D-03 -0.107627D-03 -0.876051D-05  0.598762D-01
     26  0.900375D-04  0.299903D-04 -0.189697D-04 -0.268379D-04  0.177034D-01
     27  0.482980D-05  0.756859D-04  0.977241D-04 -0.387908D-04  0.161224D-01
     28  0.715143D-05  0.979290D-04  0.255602D-03 -0.107762D-03  0.163053D-02
     29  0.271485D-04  0.628915D-05  0.420233D-04 -0.894738D-04  0.228028D-02
     30 -0.398413D-04 -0.344395D-05 -0.141588D-04  0.327996D-05  0.515386D-03
     31 -0.288298D-04 -0.251769D-04  0.162496D-04  0.290863D-04  0.397967D-02
     32 -0.169315D-04  0.324990D-04  0.207391D-04  0.173689D-04  0.105959D-01
     33 -0.863712D-05 -0.157465D-04 -0.566261D-05 -0.847044D-05  0.189653D-01
     34  0.379406D-03  0.355882D-03  0.168087D-04 -0.379105D-03 -0.495609D-04
     35 -0.417219D-03 -0.743518D-03  0.508037D-03  0.415314D-03  0.508669D-04
     36  0.648235D-03  0.360758D-03 -0.567009D-03  0.645943D-03 -0.118321D-04
     37 -0.183173D-03 -0.247867D-02  0.179828D-02  0.210946D-03 -0.453563D-04
     38  0.850244D-03  0.836338D-03 -0.902997D-03 -0.844005D-03  0.264480D-04
     39 -0.131984D-02 -0.788988D-03  0.776644D-03 -0.132083D-02 -0.744086D-05
               26            27            28            29            30 
     26  0.144256D+00
[...]
  Beta virt. eigenvalues --   -0.02828   0.00930   0.02363   0.03670   0.04133
  Beta virt. eigenvalues --    0.04840   0.04908   0.05779   0.07711   0.08153
  Beta virt. eigenvalues --    0.08409   0.09585   0.09941   0.12086   0.12324
  Beta virt. eigenvalues --    0.14227   0.14970   0.18213   0.18882   0.20154
  Beta virt. eigenvalues --    0.21684   0.22512   0.23138   0.23398   0.23844
  Beta virt. eigenvalues --    0.26130   0.27622   0.28001   0.29520   0.30117
  Beta virt. eigenvalues --    0.30343   0.32028   0.33544   0.34172   0.37033
  Beta virt. eigenvalues --    0.39690   0.41173   0.44014   0.46966   0.48146
  Beta virt. eigenvalues --    0.49219   0.50641   0.53557   0.54012   0.54127
  Beta virt. eigenvalues --    0.54922   0.55476   0.56459   0.57720   0.59270
  Beta virt. eigenvalues --    0.61412   0.63631   0.64264   0.64968   0.65909
  Beta virt. eigenvalues --    0.66709   0.68064   0.70155   0.70874   0.75529
  Beta virt. eigenvalues --    0.77793   0.79351   0.81441   0.85919   0.88224
  Beta virt. eigenvalues --    0.89322   0.90713   0.93474   0.93974   0.97948
  Beta virt. eigenvalues --    1.00538   1.03402   1.05155   1.05190   1.06776
  Beta virt. eigenvalues --    1.09688   1.10299   1.12701   1.13397   1.14384
  Beta virt. eigenvalues --    1.18799   1.18846   1.20294   1.21833   1.22291
  Beta virt. eigenvalues --    1.25229   1.25679   1.26301   1.27508   1.33378
  Beta virt. eigenvalues --    1.34404   1.35978   1.38725   1.40889   1.41133
  Beta virt. eigenvalues --    1.42887   1.43731   1.43952   1.47030   1.47656
  Beta virt. eigenvalues --    1.51309   1.54773   1.58009   1.58484   1.61172
  Beta virt. eigenvalues --    1.65460   1.67753   1.67852   1.72771   1.78605
  Beta virt. eigenvalues --    1.85361   1.86684   1.92838   2.05765   2.09605
  Beta virt. eigenvalues --    2.12113   2.32784   2.35379   2.39097   2.44645
  Beta virt. eigenvalues --    2.49940   2.56241   2.57073   2.57461   2.68936
  Beta virt. eigenvalues --    2.73498   2.76758   2.77548   2.77608   2.79421
  Beta virt. eigenvalues --    2.82916   2.85093   2.91210   2.95937   2.96239
  Beta virt. eigenvalues --    2.99250   3.00635   3.01649   3.04070   3.05549
  Beta virt. eigenvalues --    3.09447   3.10007   3.10770   3.13702   3.15832
  Beta virt. eigenvalues --    3.17804   3.21589   3.21804   3.25605   3.26892
  Beta virt. eigenvalues --    3.28909   3.29933   3.31225   3.35886   3.40394
  Beta virt. eigenvalues --    3.41710   3.42733   3.47518   3.48954   3.52797
  Beta virt. eigenvalues --    3.53289   3.53301   3.53745   3.59010   3.59072
  Beta virt. eigenvalues --    3.59568   3.65034   3.67370   3.70326   3.73670
  Beta virt. eigenvalues --    3.81063   3.87013   3.87249   3.89339   3.90990
  Beta virt. eigenvalues --    3.94483   3.97255   4.00209   4.02938   4.06708
  Beta virt. eigenvalues --    4.11108   4.12469   4.16678   4.16777   4.19418
  Beta virt. eigenvalues --    4.22376   4.24900   4.29776   4.30961   4.31028
  Beta virt. eigenvalues --    4.33419   4.36047   4.39987   4.43206   4.43378
  Beta virt. eigenvalues --    4.44376   4.56472   4.59337   4.68988   4.91882
  Beta virt. eigenvalues --    4.99417   5.05392   5.07814   5.12329   5.14405
  Beta virt. eigenvalues --    5.20118   5.23163   5.23278   5.29406   5.36696
  Beta virt. eigenvalues --    5.44625   5.47620   5.50329   5.54165   5.56284
  Beta virt. eigenvalues --    5.60079   5.60475   5.62983   5.68125   5.74295
  Beta virt. eigenvalues --    5.80438   6.00200   6.10309   6.38762   6.46212
  Beta virt. eigenvalues --    6.69559   6.82667   6.95581   7.07666   7.11305
  Beta virt. eigenvalues --    7.17061   7.19012   7.25216   7.31198   7.54514
  Beta virt. eigenvalues --    7.67124   7.77336   7.83534  24.26835  24.43575
  Beta virt. eigenvalues --   24.48535  24.86078  50.17695  50.31505
          Condensed to atoms (all electrons):
               1          2          3          4          5          6
     1  O    8.226122  -0.090080  -0.193895   0.147045   0.201715   0.005850
     2  O   -0.090080   8.187462   0.020038  -0.033214   0.357342  -0.032661
     3  C   -0.193895   0.020038   5.557065  -0.051721  -0.139478   0.044477
     4  C    0.147045  -0.033214  -0.051721   4.963347  -0.107035  -0.014874
     5  C    0.201715   0.357342  -0.139478  -0.107035   5.387957   0.149691
     6  C    0.005850  -0.032661   0.044477  -0.014874   0.149691   5.639742
     7  H    0.001771  -0.000365   0.439251   0.001155  -0.035768  -0.055180
     8  H    0.001770  -0.000365   0.439218   0.001165  -0.035750  -0.055171
     9  H   -0.035535  -0.004072  -0.001776   0.430297   0.002099  -0.000390
    10  H   -0.035481  -0.004078  -0.001784   0.430306   0.002089  -0.000390
    11  H   -0.059244   0.003663   0.002199   0.420113   0.017830   0.000530
    12  H   -0.000478   0.000696  -0.063303   0.000477   0.026142   0.415424
    13  H   -0.000383   0.001572  -0.035954  -0.000943  -0.003788   0.411178
               7          8          9         10         11         12
     1  O    0.001771   0.001770  -0.035535  -0.035481  -0.059244  -0.000478
     2  O   -0.000365  -0.000365  -0.004072  -0.004078   0.003663   0.000696
     3  C    0.439251   0.439218  -0.001776  -0.001784   0.002199  -0.063303
     4  C    0.001155   0.001165   0.430297   0.430306   0.420113   0.000477
     5  C   -0.035768  -0.035750   0.002099   0.002089   0.017830   0.026142
     6  C   -0.055180  -0.055171  -0.000390  -0.000390   0.000530   0.415424
     7  H    0.547193  -0.050916  -0.000113   0.000182   0.000012  -0.001924
     8  H   -0.050916   0.547195   0.000182  -0.000113   0.000012  -0.001926
     9  H   -0.000113   0.000182   0.531821  -0.037366  -0.024786  -0.000001
    10  H    0.000182  -0.000113  -0.037366   0.531772  -0.024818  -0.000001
    11  H    0.000012   0.000012  -0.024786  -0.024818   0.532050  -0.000001
    12  H   -0.001924  -0.001926  -0.000001  -0.000001  -0.000001   0.462873
    13  H    0.002823   0.002824  -0.000006  -0.000006   0.000002  -0.019600
              13
     1  O   -0.000383
     2  O    0.001572
     3  C   -0.035954
     4  C   -0.000943
     5  C   -0.003788
     6  C    0.411178
     7  H    0.002823
     8  H    0.002824
     9  H   -0.000006
    10  H   -0.000006
    11  H    0.000002
    12  H   -0.019600
    13  H    0.432574
          Atomic-Atomic Spin Densities.
               1          2          3          4          5          6
     1  O    0.005155  -0.000841   0.003067   0.001232  -0.005513   0.000384
     2  O   -0.000841  -0.007208   0.002270  -0.000517   0.002604  -0.000389
     3  C    0.003067   0.002270  -0.080069  -0.000899  -0.000768  -0.051360
     4  C    0.001232  -0.000517  -0.000899   0.000815   0.000764  -0.002254
     5  C   -0.005513   0.002604  -0.000768   0.000764   0.019080  -0.002937
     6  C    0.000384  -0.000389  -0.051360  -0.002254  -0.002937   1.196883
     7  H   -0.000787  -0.000142   0.014682   0.000025   0.006686  -0.033282
     8  H   -0.000788  -0.000141   0.014678   0.000027   0.006680  -0.033269
     9  H   -0.000144   0.000010   0.000185  -0.000262   0.000071  -0.000056
    10  H   -0.000147   0.000010   0.000185  -0.000262   0.000072  -0.000056
    11  H   -0.000090  -0.000038   0.000037   0.000054  -0.000054   0.000031
    12  H   -0.000007  -0.000183  -0.003321   0.000124   0.005705  -0.000415
    13  H    0.000292   0.002056   0.012465  -0.000031  -0.005518  -0.010561
               7          8          9         10         11         12
     1  O   -0.000787  -0.000788  -0.000144  -0.000147  -0.000090  -0.000007
     2  O   -0.000142  -0.000141   0.000010   0.000010  -0.000038  -0.000183
     3  C    0.014682   0.014678   0.000185   0.000185   0.000037  -0.003321
     4  C    0.000025   0.000027  -0.000262  -0.000262   0.000054   0.000124
     5  C    0.006686   0.006680   0.000071   0.000072  -0.000054   0.005705
     6  C   -0.033282  -0.033269  -0.000056  -0.000056   0.000031  -0.000415
     7  H    0.076964  -0.023506  -0.000046   0.000081   0.000004   0.000286
     8  H   -0.023506   0.076952   0.000081  -0.000046   0.000004   0.000286
     9  H   -0.000046   0.000081   0.000807  -0.000306  -0.000008   0.000000
    10  H    0.000081  -0.000046  -0.000306   0.000809  -0.000008   0.000000
    11  H    0.000004   0.000004  -0.000008  -0.000008   0.000009  -0.000000
    12  H    0.000286   0.000286   0.000000   0.000000  -0.000000  -0.048015
    13  H   -0.000154  -0.000154  -0.000001  -0.000001  -0.000000   0.004567
              13
     1  O    0.000292
     2  O    0.002056
     3  C    0.012465
     4  C   -0.000031
     5  C   -0.005518
     6  C   -0.010561
     7  H   -0.000154
     8  H   -0.000154
     9  H   -0.000001
    10  H   -0.000001
    11  H   -0.000000
    12  H    0.004567
    13  H   -0.043065
 Mulliken charges and spin densities:
               1          2
     1  O   -0.169178   0.001812
     2  O   -0.405939  -0.002508
     3  C   -0.014338  -0.088848
     4  C   -0.186119  -0.001185
     5  C    0.176953   0.026872
     6  C   -0.508225   1.062717
     7  H    0.151879   0.040812
     8  H    0.151874   0.040805
     9  H    0.139645   0.000331
    10  H    0.139688   0.000331
    11  H    0.132436  -0.000059
    12  H    0.181620  -0.040974
    13  H    0.209706  -0.040106
 Sum of Mulliken charges =  -0.00000   1.00000
 Mulliken charges and spin densities with hydrogens summed into heavy atoms:
               1          2
     1  O   -0.169178   0.001812
     2  O   -0.405939  -0.002508
     3  C    0.289415  -0.007231
     4  C    0.225649  -0.000582
     5  C    0.176953   0.026872
     6  C   -0.116899   0.981637
 Electronic spatial extent (au):  <R**2>=            656.7610
 Charge=             -0.0000 electrons
 Dipole moment (field-independent basis, Debye):
    X=              0.6437    Y=             -1.8231    Z=              0.0005  Tot=              1.9334
 Quadrupole moment (field-independent basis, Debye-Ang):
   XX=            -30.3935   YY=            -40.0513   ZZ=            -36.4466
   XY=              1.7548   XZ=              0.0001   YZ=             -0.0000
 Traceless Quadrupole moment (field-independent basis, Debye-Ang):
   XX=              5.2370   YY=             -4.4208   ZZ=             -0.8161
   XY=              1.7548   XZ=              0.0001   YZ=             -0.0000
 Octapole moment (field-independent basis, Debye-Ang**2):
  XXX=             18.6941  YYY=             -3.3956  ZZZ=             -0.0009  XYY=             -0.3492
  XXY=             -1.6013  XXZ=             -0.0012  XZZ=              5.6414  YZZ=             -0.2870
  YYZ=             -0.0005  XYZ=              0.0003
 Hexadecapole moment (field-independent basis, Debye-Ang**3):
 XXXX=           -622.9181 YYYY=           -161.8947 ZZZZ=            -50.2212 XXXY=              0.2441
 XXXZ=             -0.0165 YYYX=             -3.0709 YYYZ=             -0.0004 ZZZX=              0.0025
 ZZZY=              0.0006 XXYY=           -132.2200 XXZZ=           -128.5328 YYZZ=            -32.9096
 XXYZ=             -0.0006 YYXZ=             -0.0015 ZZXY=              3.7000
 N-N= 2.370984928941D+02 E-N=-1.192536608871D+03  KE= 3.059340268371D+02
                          Isotropic Fermi Contact Couplings
        Atom                 a.u.       MegaHertz       Gauss      10(-4) cm-1
     1  O(17)             -0.00116       0.70494       0.25154       0.23514
     2  O(17)             -0.00157       0.94871       0.33852       0.31646
     3  C(13)             -0.03543     -39.83419     -14.21383     -13.28726
     4  C(13)             -0.00036      -0.40964      -0.14617      -0.13664
     5  C(13)              0.00137       1.53900       0.54915       0.51336
     6  C(13)              0.16618     186.82032      66.66214      62.31655
     7  H(1)               0.02121      94.79322      33.82458      31.61961
     8  H(1)               0.02120      94.77301      33.81737      31.61287
     9  H(1)               0.00008       0.35513       0.12672       0.11846
    10  H(1)               0.00008       0.35477       0.12659       0.11834
    11  H(1)              -0.00000      -0.01962      -0.00700      -0.00654
    12  H(1)              -0.01633     -73.01198     -26.05249     -24.35417
    13  H(1)              -0.01672     -74.71420     -26.65988     -24.92197
 --------------------------------------------------------
       Center         ----  Spin Dipole Couplings  ----
                      3XX-RR        3YY-RR        3ZZ-RR
 --------------------------------------------------------
     1   Atom       -0.006570     -0.012040      0.018610
     2   Atom        0.008068      0.004180     -0.012247
     3   Atom        0.000335     -0.009064      0.008729
     4   Atom        0.002313     -0.001129     -0.001184
     5   Atom        0.011030     -0.009608     -0.001422
     6   Atom       -0.555529     -0.553778      1.109307
     7   Atom        0.001564      0.005110     -0.006674
     8   Atom        0.001565      0.005111     -0.006676
     9   Atom        0.002079     -0.001035     -0.001044
    10   Atom        0.002079     -0.001035     -0.001044
    11   Atom        0.001701     -0.000871     -0.000829
    12   Atom        0.048502     -0.044431     -0.004071
    13   Atom       -0.072820      0.076241     -0.003421
 --------------------------------------------------------
                        XY            XZ            YZ
 --------------------------------------------------------
     1   Atom       -0.000939     -0.000005     -0.000003
     2   Atom        0.006459     -0.000003     -0.000000
     3   Atom       -0.010282      0.000001      0.000002
     4   Atom        0.000034     -0.000000     -0.000000
     5   Atom        0.000158     -0.000004     -0.000001
     6   Atom        0.004286      0.000236      0.000126
     7   Atom       -0.011839     -0.004992      0.007420
     8   Atom       -0.011840      0.004991     -0.007417
     9   Atom        0.000507      0.000555      0.000082
    10   Atom        0.000507     -0.000555     -0.000082
    11   Atom       -0.000280     -0.000000     -0.000000
    12   Atom        0.060025     -0.000012     -0.000005
    13   Atom        0.012174      0.000009     -0.000008
 --------------------------------------------------------


 ---------------------------------------------------------------------------------
              Anisotropic Spin Dipole Couplings in Principal Axis System
 ---------------------------------------------------------------------------------

       Atom             a.u.   MegaHertz   Gauss  10(-4) cm-1        Axes

              Baa    -0.0122     0.883     0.315     0.294  0.1646  0.9864  0.0001
     1 O(17)  Bbb    -0.0064     0.464     0.166     0.155  0.9864 -0.1646  0.0002
              Bcc     0.0186    -1.347    -0.481    -0.449 -0.0002 -0.0001  1.0000
 
              Baa    -0.0122     0.886     0.316     0.296  0.0001 -0.0000  1.0000
     2 O(17)  Bbb    -0.0006     0.045     0.016     0.015 -0.5966  0.8026  0.0001
              Bcc     0.0129    -0.931    -0.332    -0.311  0.8026  0.5966 -0.0001
 
              Baa    -0.0157    -2.103    -0.750    -0.701  0.5405  0.8413 -0.0001
     3 C(13)  Bbb     0.0069     0.931     0.332     0.311  0.8413 -0.5405  0.0002
              Bcc     0.0087     1.171     0.418     0.391 -0.0001  0.0002  1.0000
 
              Baa    -0.0012    -0.159    -0.057    -0.053  0.0000  0.0003  1.0000
     4 C(13)  Bbb    -0.0011    -0.152    -0.054    -0.051 -0.0099  1.0000 -0.0003
              Bcc     0.0023     0.310     0.111     0.104  1.0000  0.0099 -0.0000
 
              Baa    -0.0096    -1.289    -0.460    -0.430 -0.0076  1.0000  0.0001
     5 C(13)  Bbb    -0.0014    -0.191    -0.068    -0.064  0.0003 -0.0001  1.0000
              Bcc     0.0110     1.480     0.528     0.494  1.0000  0.0076 -0.0003
 
              Baa    -0.5590   -75.016   -26.768   -25.023  0.7746 -0.6324 -0.0001
     6 C(13)  Bbb    -0.5503   -73.842   -26.349   -24.631  0.6324  0.7746 -0.0001
              Bcc     1.1093   148.858    53.116    49.654  0.0001  0.0001  1.0000
 
              Baa    -0.0104    -5.541    -1.977    -1.848 -0.1912 -0.5389  0.8204
     7 H(1)   Bbb    -0.0081    -4.304    -1.536    -1.436  0.7727  0.4327  0.4644
              Bcc     0.0185     9.845     3.513     3.284 -0.6053  0.7227  0.3337
 
              Baa    -0.0104    -5.540    -1.977    -1.848  0.1912  0.5388  0.8204
     8 H(1)   Bbb    -0.0081    -4.304    -1.536    -1.436  0.7727  0.4329 -0.4644
              Bcc     0.0185     9.845     3.513     3.284 -0.6053  0.7227 -0.3336
 
              Baa    -0.0011    -0.609    -0.217    -0.203 -0.1956  0.1882  0.9624
     9 H(1)   Bbb    -0.0011    -0.595    -0.212    -0.198 -0.1168  0.9699 -0.2135
              Bcc     0.0023     1.203     0.429     0.401  0.9737  0.1542  0.1678
 
              Baa    -0.0011    -0.609    -0.217    -0.203  0.1958 -0.1912  0.9618
    10 H(1)   Bbb    -0.0011    -0.594    -0.212    -0.198 -0.1163  0.9693  0.2164
              Bcc     0.0023     1.203     0.429     0.401  0.9737  0.1543 -0.1676
 
              Baa    -0.0009    -0.481    -0.172    -0.160  0.1071  0.9943  0.0001
    11 H(1)   Bbb    -0.0008    -0.442    -0.158    -0.148  0.0000 -0.0001  1.0000
              Bcc     0.0017     0.923     0.330     0.308  0.9943 -0.1071 -0.0000
 
              Baa    -0.0739   -39.415   -14.064   -13.148 -0.4404  0.8978 -0.0000
    12 H(1)   Bbb    -0.0041    -2.172    -0.775    -0.724  0.0001  0.0001  1.0000
              Bcc     0.0779    41.587    14.839    13.872  0.8978  0.4404 -0.0002
 
              Baa    -0.0738   -39.381   -14.052   -13.136  0.9967 -0.0809 -0.0001
    13 H(1)   Bbb    -0.0034    -1.825    -0.651    -0.609  0.0001  0.0001  1.0000
              Bcc     0.0772    41.206    14.703    13.745  0.0809  0.9967 -0.0001
 

 ---------------------------------------------------------------------------------

 No NMR shielding tensors so no spin-rotation constants.
 Leave Link  601 at Fri Mar 29 16:58:55 2019, MaxMem=   671088640 cpu:               8.7 elap:               0.5
 (Enter /shared/centos7/gaussian/g16/l9999.exe)
 1\1\GINC-C0144\Scan\UM062X\6-311+G(2df,2p)\C4H7O2(2)\UNDERKOFFLER.C\29
 -Mar-2019\0\\#p m062x/6-311+g(2df,2p) Opt=(CalcFC,ModRedun)\\Gaussian 
 Input Prepared from Scan Object\\0,2\O,0.9952644373,-0.0399980248,0.71
 37857524\O,0.2149585773,0.0220265321,-1.3800645186\C,-1.3245194744,-0.
 3035130086,0.4526499527\C,2.3081248078,0.1597969755,0.1950174892\C,0.0
 187330804,-0.0903015864,-0.2029466258\C,-2.4423892857,-0.3672278332,-0
 .5159675695\H,-1.247401056,-1.2140613917,1.0583474665\H,-1.4566066433,
 0.499670981,1.1870622842\H,2.3608368437,1.1016974284,-0.3473773461\H,2
 .5756074419,-0.650923034,-0.4795659175\H,2.9692952035,0.1757215737,1.0
 54721826\H,-3.4506647246,-0.5164825112,-0.1662217958\H,-2.2485922081,-
 0.264438101,-1.5707529976\\Version=EM64L-G16RevA.03\State=2-A\HF=-307.
 0051153,-307.0040381,-307.0031481,-307.0040184,-307.0051151,-307.00407
 08,-307.003149,-307.0039939,-307.0051153,-307.0040139,-307.0031484,-30
 7.0040513,-307.0051153\S2=0.755154,0.755154,0.755155,0.755154,0.755154
 ,0.755154,0.755155,0.755154,0.755154,0.755154,0.755155,0.755154,0.7551
 54\S2-1=0.,0.,0.,0.,0.,0.,0.,0.,0.,0.,0.,0.,0.\S2A=0.750021,0.750021,0
 .750021,0.750021,0.750021,0.750021,0.750021,0.750021,0.750021,0.750021
 ,0.750021,0.750021,0.750021\RMSD=6.865e-09,7.110e-09,5.503e-09,6.374e-
 09,6.859e-09,2.138e-09,4.584e-09,4.422e-09,9.582e-09,6.952e-09,4.152e-
 09,3.019e-09,3.493e-09\PG=C01 [X(C4H7O2)]\\@


 MY GROUP MEETINGS AREN'T VERY STRUCTURED.
     -- PROF. M. S. GORDON, OCT. 5, 1984
 Job cpu time:       0 days 13 hours 39 minutes 14.8 seconds.
 Elapsed time:       0 days  0 hours 41 minutes 15.4 seconds.
 File lengths (MBytes):  RWF=   1392 Int=      0 D2E=      0 Chk=     32 Scr=     32
 Normal termination of Gaussian 16 at Fri Mar 29 16:58:55 2019.
