 Entering Gaussian System, Link 0=g16
 Input=NPQBOSHSVUVOHJ-UHFFFAOYSA-N_36by-10.0_tor03_a1.com
 Output=NPQBOSHSVUVOHJ-UHFFFAOYSA-N_36by-10.0_tor03_a1.log
 Initial command:
 /shared/centos7/gaussian/g16/l1.exe "/scratch/underkoffler.c/gaussian_scratch/Gau-26594.inp" -scrdir="/scratch/underkoffler.c/gaussian_scratch/"
 Entering Link 1 = /shared/centos7/gaussian/g16/l1.exe PID=     26595.
  
 Copyright (c) 1988,1990,1992,1993,1995,1998,2003,2009,2016,
            Gaussian, Inc.  All Rights Reserved.
  
 This is part of the Gaussian(R) 16 program.  It is based on
 the Gaussian(R) 09 system (copyright 2009, Gaussian, Inc.),
 the Gaussian(R) 03 system (copyright 2003, Gaussian, Inc.),
 the Gaussian(R) 98 system (copyright 1998, Gaussian, Inc.),
 the Gaussian(R) 94 system (copyright 1995, Gaussian, Inc.),
 the Gaussian 92(TM) system (copyright 1992, Gaussian, Inc.),
 the Gaussian 90(TM) system (copyright 1990, Gaussian, Inc.),
 the Gaussian 88(TM) system (copyright 1988, Gaussian, Inc.),
 the Gaussian 86(TM) system (copyright 1986, Carnegie Mellon
 University), and the Gaussian 82(TM) system (copyright 1983,
 Carnegie Mellon University). Gaussian is a federally registered
 trademark of Gaussian, Inc.
  
 This software contains proprietary and confidential information,
 including trade secrets, belonging to Gaussian, Inc.
  
 This software is provided under written license and may be
 used, copied, transmitted, or stored only in accord with that
 written license.
  
 The following legend is applicable only to US Government
 contracts under FAR:
  
                    RESTRICTED RIGHTS LEGEND
  
 Use, reproduction and disclosure by the US Government is
 subject to restrictions as set forth in subparagraphs (a)
 and (c) of the Commercial Computer Software - Restricted
 Rights clause in FAR 52.227-19.
  
 Gaussian, Inc.
 340 Quinnipiac St., Bldg. 40, Wallingford CT 06492
  
  
 ---------------------------------------------------------------
 Warning -- This program may not be used in any manner that
 competes with the business of Gaussian, Inc. or will provide
 assistance to any competitor of Gaussian, Inc.  The licensee
 of this program is prohibited from giving any competitor of
 Gaussian, Inc. access to this program.  By using this program,
 the user acknowledges that Gaussian, Inc. is engaged in the
 business of creating and licensing software in the field of
 computational chemistry and represents and warrants to the
 licensee that it is not a competitor of Gaussian, Inc. and that
 it will not use this program in any manner prohibited above.
 ---------------------------------------------------------------
  

 Cite this work as:
 Gaussian 16, Revision A.03,
 M. J. Frisch, G. W. Trucks, H. B. Schlegel, G. E. Scuseria, 
 M. A. Robb, J. R. Cheeseman, G. Scalmani, V. Barone, 
 G. A. Petersson, H. Nakatsuji, X. Li, M. Caricato, A. V. Marenich, 
 J. Bloino, B. G. Janesko, R. Gomperts, B. Mennucci, H. P. Hratchian, 
 J. V. Ortiz, A. F. Izmaylov, J. L. Sonnenberg, D. Williams-Young, 
 F. Ding, F. Lipparini, F. Egidi, J. Goings, B. Peng, A. Petrone, 
 T. Henderson, D. Ranasinghe, V. G. Zakrzewski, J. Gao, N. Rega, 
 G. Zheng, W. Liang, M. Hada, M. Ehara, K. Toyota, R. Fukuda, 
 J. Hasegawa, M. Ishida, T. Nakajima, Y. Honda, O. Kitao, H. Nakai, 
 T. Vreven, K. Throssell, J. A. Montgomery, Jr., J. E. Peralta, 
 F. Ogliaro, M. J. Bearpark, J. J. Heyd, E. N. Brothers, K. N. Kudin, 
 V. N. Staroverov, T. A. Keith, R. Kobayashi, J. Normand, 
 K. Raghavachari, A. P. Rendell, J. C. Burant, S. S. Iyengar, 
 J. Tomasi, M. Cossi, J. M. Millam, M. Klene, C. Adamo, R. Cammi, 
 J. W. Ochterski, R. L. Martin, K. Morokuma, O. Farkas, 
 J. B. Foresman, and D. J. Fox, Gaussian, Inc., Wallingford CT, 2016.
 
 ******************************************
 Gaussian 16:  EM64L-G16RevA.03 25-Dec-2016
                12-Mar-2019 
 ******************************************
 %nprocshared=20
 Will use up to   20 processors via shared memory.
 %mem=5GB
 ----------------------------------------------
 #p m062x/6-311+g(2df,2p) Opt=(CalcFC,ModRedun)
 ----------------------------------------------
 1/10=4,18=120,19=15,26=3,38=1/1,3;
 2/9=110,12=2,17=6,18=5,40=1/2;
 3/5=4,6=6,7=214,11=2,25=1,30=1,71=2,74=-55,140=1/1,2,3;
 4//1;
 5/5=2,38=5/2;
 8/6=4,10=90,11=11/1;
 11/6=1,8=1,9=11,15=111,16=1/1,2,10;
 10/6=1,13=1/2;
 6/7=2,8=2,9=2,10=2,28=1/1;
 7/10=1,18=20,25=1/1,2,3,16;
 1/10=4,18=20,19=15,26=3/3(2);
 2/9=110/2;
 99//99;
 2/9=110/2;
 3/5=4,6=6,7=214,11=2,25=1,30=1,71=1,74=-55/1,2,3;
 4/5=5,16=3,69=1/1;
 5/5=2,38=5/2;
 7//1,2,3,16;
 1/18=20,19=15,26=3/3(-5);
 2/9=110/2;
 6/7=2,8=2,9=2,10=2,19=2,28=1/1;
 99/9=1/99;
 Leave Link    1 at Tue Mar 12 01:35:17 2019, MaxMem=   671088640 cpu:              27.7 elap:               1.5
 (Enter /shared/centos7/gaussian/g16/l101.exe)
 ----------------------------------------
 Gaussian Input Prepared from Scan Object
 ----------------------------------------
 Symbolic Z-matrix:
 Charge =  0 Multiplicity = 2
 O                     0.75413  -0.66502   0.28278 
 O                     0.40921   1.46874  -0.29594 
 C                    -1.44125   0.16072   0.54768 
 C                     2.11069  -0.52714  -0.1344 
 C                    -0.00452   0.42976   0.13524 
 C                    -2.12009  -0.68528  -0.47352 
 H                    -1.42352  -0.34367   1.51486 
 H                    -1.92634   1.12804   0.65103 
 H                     2.60653   0.25085   0.44257 
 H                     2.15591  -0.26669  -1.19 
 H                     2.57693  -1.49039   0.04259 
 H                    -2.61157  -0.22571  -1.31622 
 H                    -1.95364  -1.75056  -0.48959 
 
 The following ModRedundant input section has been read:
 B       4      10 B                                                           
 B       3       8 B                                                           
 B       4      11 B                                                           
 B       2       5 B                                                           
 B       3       5 B                                                           
 B       1       4 B                                                           
 B       4       9 B                                                           
 B       6      12 B                                                           
 B       6      13 B                                                           
 B       3       6 B                                                           
 B       3       7 B                                                           
 B       1       5 B                                                           
 D       5       1       4      11 S  36 -10.00                                
 
 ITRead=  0  0  0  0  0  0  0  0  0  0  0  0  0
 MicOpt= -1 -1 -1 -1 -1 -1 -1 -1 -1 -1 -1 -1 -1
 NAtoms=     13 NQM=       13 NQMF=       0 NMMI=      0 NMMIF=      0
                NMic=       0 NMicF=      0.
                    Isotopes and Nuclear Properties:
 (Nuclear quadrupole moments (NQMom) in fm**2, nuclear magnetic moments (NMagM)
  in nuclear magnetons)

  Atom         1           2           3           4           5           6           7           8           9          10
 IAtWgt=          16          16          12          12          12          12           1           1           1           1
 AtmWgt=  15.9949146  15.9949146  12.0000000  12.0000000  12.0000000  12.0000000   1.0078250   1.0078250   1.0078250   1.0078250
 NucSpn=           0           0           0           0           0           0           1           1           1           1
 AtZEff=  -0.0000000  -0.0000000  -0.0000000  -0.0000000  -0.0000000  -0.0000000  -0.0000000  -0.0000000  -0.0000000  -0.0000000
 NQMom=    0.0000000   0.0000000   0.0000000   0.0000000   0.0000000   0.0000000   0.0000000   0.0000000   0.0000000   0.0000000
 NMagM=    0.0000000   0.0000000   0.0000000   0.0000000   0.0000000   0.0000000   2.7928460   2.7928460   2.7928460   2.7928460
 AtZNuc=   8.0000000   8.0000000   6.0000000   6.0000000   6.0000000   6.0000000   1.0000000   1.0000000   1.0000000   1.0000000

  Atom        11          12          13
 IAtWgt=           1           1           1
 AtmWgt=   1.0078250   1.0078250   1.0078250
 NucSpn=           1           1           1
 AtZEff=  -0.0000000  -0.0000000  -0.0000000
 NQMom=    0.0000000   0.0000000   0.0000000
 NMagM=    2.7928460   2.7928460   2.7928460
 AtZNuc=   1.0000000   1.0000000   1.0000000
 Leave Link  101 at Tue Mar 12 01:35:18 2019, MaxMem=   671088640 cpu:               5.4 elap:               0.3
 (Enter /shared/centos7/gaussian/g16/l103.exe)

 GradGradGradGradGradGradGradGradGradGradGradGradGradGradGradGradGradGrad
 Berny optimization.
 Initialization pass.
                           ----------------------------
                           !    Initial Parameters    !
                           ! (Angstroms and Degrees)  !
 --------------------------                            --------------------------
 ! Name  Definition              Value          Derivative Info.                !
 --------------------------------------------------------------------------------
 ! R1    R(1,4)                  1.4259         calculate D2E/DX2 analytically  !
 ! R2    R(1,5)                  1.3401         calculate D2E/DX2 analytically  !
 ! R3    R(2,5)                  1.1986         calculate D2E/DX2 analytically  !
 ! R4    R(3,5)                  1.5188         calculate D2E/DX2 analytically  !
 ! R5    R(3,6)                  1.4898         calculate D2E/DX2 analytically  !
 ! R6    R(3,7)                  1.0909         calculate D2E/DX2 analytically  !
 ! R7    R(3,8)                  1.0871         calculate D2E/DX2 analytically  !
 ! R8    R(4,9)                  1.0881         calculate D2E/DX2 analytically  !
 ! R9    R(4,10)                 1.0882         calculate D2E/DX2 analytically  !
 ! R10   R(4,11)                 1.0847         calculate D2E/DX2 analytically  !
 ! R11   R(6,12)                 1.0784         calculate D2E/DX2 analytically  !
 ! R12   R(6,13)                 1.0783         calculate D2E/DX2 analytically  !
 ! A1    A(4,1,5)              115.3007         calculate D2E/DX2 analytically  !
 ! A2    A(5,3,6)              110.2117         calculate D2E/DX2 analytically  !
 ! A3    A(5,3,7)              107.8955         calculate D2E/DX2 analytically  !
 ! A4    A(5,3,8)              106.8771         calculate D2E/DX2 analytically  !
 ! A5    A(6,3,7)              110.6444         calculate D2E/DX2 analytically  !
 ! A6    A(6,3,8)              111.5407         calculate D2E/DX2 analytically  !
 ! A7    A(7,3,8)              109.5349         calculate D2E/DX2 analytically  !
 ! A8    A(1,4,9)              110.3354         calculate D2E/DX2 analytically  !
 ! A9    A(1,4,10)             110.2716         calculate D2E/DX2 analytically  !
 ! A10   A(1,4,11)             105.9804         calculate D2E/DX2 analytically  !
 ! A11   A(9,4,10)             108.9229         calculate D2E/DX2 analytically  !
 ! A12   A(9,4,11)             110.6437         calculate D2E/DX2 analytically  !
 ! A13   A(10,4,11)            110.669          calculate D2E/DX2 analytically  !
 ! A14   A(1,5,2)              123.5286         calculate D2E/DX2 analytically  !
 ! A15   A(1,5,3)              111.1569         calculate D2E/DX2 analytically  !
 ! A16   A(2,5,3)              125.2952         calculate D2E/DX2 analytically  !
 ! A17   A(3,6,12)             120.0883         calculate D2E/DX2 analytically  !
 ! A18   A(3,6,13)             120.0589         calculate D2E/DX2 analytically  !
 ! A19   A(12,6,13)            118.6667         calculate D2E/DX2 analytically  !
 ! D1    D(5,1,4,9)             60.5912         calculate D2E/DX2 analytically  !
 ! D2    D(5,1,4,10)           -59.7782         calculate D2E/DX2 analytically  !
 ! D3    D(5,1,4,11)          -179.5913         Scan                            !
 ! D4    D(4,1,5,2)             -1.0583         calculate D2E/DX2 analytically  !
 ! D5    D(4,1,5,3)            177.4173         calculate D2E/DX2 analytically  !
 ! D6    D(6,3,5,1)            -73.0474         calculate D2E/DX2 analytically  !
 ! D7    D(6,3,5,2)            105.3956         calculate D2E/DX2 analytically  !
 ! D8    D(7,3,5,1)             47.8621         calculate D2E/DX2 analytically  !
 ! D9    D(7,3,5,2)           -133.6949         calculate D2E/DX2 analytically  !
 ! D10   D(8,3,5,1)            165.5828         calculate D2E/DX2 analytically  !
 ! D11   D(8,3,5,2)            -15.9742         calculate D2E/DX2 analytically  !
 ! D12   D(5,3,6,12)           -87.8988         calculate D2E/DX2 analytically  !
 ! D13   D(5,3,6,13)            79.4928         calculate D2E/DX2 analytically  !
 ! D14   D(7,3,6,12)           152.8511         calculate D2E/DX2 analytically  !
 ! D15   D(7,3,6,13)           -39.7573         calculate D2E/DX2 analytically  !
 ! D16   D(8,3,6,12)            30.6511         calculate D2E/DX2 analytically  !
 ! D17   D(8,3,6,13)          -161.9573         calculate D2E/DX2 analytically  !
 --------------------------------------------------------------------------------
 Trust Radius=3.00D-01 FncErr=1.00D-07 GrdErr=1.00D-06 EigMax=2.50D+02 EigMin=1.00D-04
 Number of optimizations in scan=  37
 Number of steps in this run=     58 maximum allowed number of steps=    100.
 GradGradGradGradGradGradGradGradGradGradGradGradGradGradGradGradGradGrad

 Leave Link  103 at Tue Mar 12 01:35:18 2019, MaxMem=   671088640 cpu:               0.2 elap:               0.0
 (Enter /shared/centos7/gaussian/g16/l202.exe)
                          Input orientation:                          
 ---------------------------------------------------------------------
 Center     Atomic      Atomic             Coordinates (Angstroms)
 Number     Number       Type             X           Y           Z
 ---------------------------------------------------------------------
      1          8           0        0.754133   -0.665018    0.282782
      2          8           0        0.409209    1.468736   -0.295936
      3          6           0       -1.441252    0.160721    0.547683
      4          6           0        2.110694   -0.527136   -0.134396
      5          6           0       -0.004523    0.429760    0.135235
      6          6           0       -2.120085   -0.685281   -0.473524
      7          1           0       -1.423521   -0.343667    1.514856
      8          1           0       -1.926336    1.128036    0.651033
      9          1           0        2.606527    0.250854    0.442565
     10          1           0        2.155908   -0.266685   -1.189997
     11          1           0        2.576925   -1.490386    0.042591
     12          1           0       -2.611571   -0.225711   -1.316222
     13          1           0       -1.953644   -1.750558   -0.489594
 ---------------------------------------------------------------------
                    Distance matrix (angstroms):
                    1          2          3          4          5
     1  O    0.000000
     2  O    2.237587   0.000000
     3  C    2.360452   2.418017   0.000000
     4  C    1.425941   2.627670   3.681671   0.000000
     5  C    1.340099   1.198564   1.518778   2.337197   0.000000
     6  C    2.972127   3.326959   1.489765   4.247295   2.467693
     7  H    2.522588   3.150028   1.090938   3.904405   2.124876
     8  H    3.245854   2.543148   1.087053   4.433295   2.108792
     9  H    2.072611   2.618554   4.050147   1.088119   2.635154
    10  H    2.071888   2.619539   4.017682   1.088196   2.628447
    11  H    2.015315   3.683748   4.373445   1.084688   3.218605
    12  H    3.752035   3.610713   2.234529   4.877228   3.055007
    13  H    3.017784   3.998054   2.234162   4.259316   2.990530
                    6          7          8          9         10
     6  C    0.000000
     7  H    2.134375   0.000000
     8  H    2.142495   1.779022   0.000000
     9  H    4.904736   4.212429   4.621661   0.000000
    10  H    4.355763   4.487145   4.690347   1.770921   0.000000
    11  H    4.793379   4.414307   5.244587   1.786833   1.787169
    12  H    1.078380   3.072520   2.484405   5.527114   4.769325
    13  H    1.078321   2.505633   3.096462   5.066530   4.425026
                   11         12         13
    11  H    0.000000
    12  H    5.510560   0.000000
    13  H    4.569132   1.855085   0.000000
 Stoichiometry    C4H7O2(2)
 Framework group  C1[X(C4H7O2)]
 Deg. of freedom    33
 Full point group                 C1      NOp   1
 Largest Abelian subgroup         C1      NOp   1
 Largest concise Abelian subgroup C1      NOp   1
                         Standard orientation:                         
 ---------------------------------------------------------------------
 Center     Atomic      Atomic             Coordinates (Angstroms)
 Number     Number       Type             X           Y           Z
 ---------------------------------------------------------------------
      1          8           0        0.754133   -0.665017    0.282782
      2          8           0        0.409207    1.468736   -0.295936
      3          6           0       -1.441253    0.160719    0.547683
      4          6           0        2.110694   -0.527134   -0.134396
      5          6           0       -0.004524    0.429759    0.135236
      6          6           0       -2.120085   -0.685284   -0.473524
      7          1           0       -1.423522   -0.343668    1.514856
      8          1           0       -1.926338    1.128033    0.651034
      9          1           0        2.606526    0.250857    0.442565
     10          1           0        2.155907   -0.266683   -1.189996
     11          1           0        2.576926   -1.490383    0.042592
     12          1           0       -2.611571   -0.225714   -1.316222
     13          1           0       -1.953643   -1.750560   -0.489594
 ---------------------------------------------------------------------
 Rotational constants (GHZ):           6.6806383           2.5979553           2.1163562
 Leave Link  202 at Tue Mar 12 01:35:18 2019, MaxMem=   671088640 cpu:               0.1 elap:               0.0
 (Enter /shared/centos7/gaussian/g16/l301.exe)
 Standard basis: 6-311+G(2df,2p) (5D, 7F)
 Ernie: Thresh=  0.10000D-02 Tol=  0.10000D-05 Strict=F.
 There are   297 symmetry adapted cartesian basis functions of A   symmetry.
 There are   267 symmetry adapted basis functions of A   symmetry.
   267 basis functions,   389 primitive gaussians,   297 cartesian basis functions
    24 alpha electrons       23 beta electrons
       nuclear repulsion energy       238.0263240781 Hartrees.
 IExCor= 4336 DFT=T Ex+Corr=M062X ExCW=0 ScaHFX=  0.540000
 ScaDFX=  1.000000  1.000000  1.000000  1.000000 ScalE2=  1.000000  1.000000
 IRadAn=      5 IRanWt=     -1 IRanGd=            0 ICorTp=0 IEmpDi=  4
 NAtoms=   13 NActive=   13 NUniq=   13 SFac= 1.00D+00 NAtFMM=   60 NAOKFM=F Big=F
 Integral buffers will be    131072 words long.
 Raffenetti 2 integral format.
 Two-electron integral symmetry is turned on.
 Leave Link  301 at Tue Mar 12 01:35:18 2019, MaxMem=   671088640 cpu:               0.8 elap:               0.1
 (Enter /shared/centos7/gaussian/g16/l302.exe)
 NPDir=0 NMtPBC=     1 NCelOv=     1 NCel=       1 NClECP=     1 NCelD=      1
         NCelK=      1 NCelE2=     1 NClLst=     1 CellRange=     0.0.
 One-electron integrals computed using PRISM.
 One-electron integral symmetry used in STVInt
 NBasis=   267 RedAO= T EigKep=  3.57D-05  NBF=   267
 NBsUse=   267 1.00D-06 EigRej= -1.00D+00 NBFU=   267
 Precomputing XC quadrature grid using
 IXCGrd= 4 IRadAn=           5 IRanWt=          -1 IRanGd=           0 AccXCQ= 0.00D+00.
 Generated NRdTot=       0 NPtTot=           0 NUsed=           0 NTot=          32
 NSgBfM=   297   297   297   297   297 MxSgAt=    13 MxSgA2=    13.
 Leave Link  302 at Tue Mar 12 01:35:18 2019, MaxMem=   671088640 cpu:               6.0 elap:               0.3
 (Enter /shared/centos7/gaussian/g16/l303.exe)
 DipDrv:  MaxL=1.
 Leave Link  303 at Tue Mar 12 01:35:18 2019, MaxMem=   671088640 cpu:               0.5 elap:               0.0
 (Enter /shared/centos7/gaussian/g16/l401.exe)
 ExpMin= 4.38D-02 ExpMax= 8.59D+03 ExpMxC= 1.30D+03 IAcc=3 IRadAn=         5 AccDes= 0.00D+00
 Harris functional with IExCor= 1009 and IRadAn=       5 diagonalized for initial guess.
 HarFok:  IExCor= 1009 AccDes= 0.00D+00 IRadAn=         5 IDoV= 1 UseB2=F ITyADJ=14
 ICtDFT=  3500011 ScaDFX=  1.000000  1.000000  1.000000  1.000000
 FoFCou: FMM=F IPFlag=           0 FMFlag=      100000 FMFlg1=           0
         NFxFlg=           0 DoJE=T BraDBF=F KetDBF=T FulRan=T
         wScrn=  0.000000 ICntrl=       500 IOpCl=  0 I1Cent=   200000004 NGrid=           0
         NMat0=    1 NMatS0=      1 NMatT0=    0 NMatD0=    1 NMtDS0=    0 NMtDT0=    0
 Petite list used in FoFCou.
 Harris En= -306.860162315006    
 JPrj=0 DoOrth=F DoCkMO=F.
 Initial guess <Sx>= 0.0000 <Sy>= 0.0000 <Sz>= 0.5000 <S**2>= 0.7500 S= 0.5000
 Leave Link  401 at Tue Mar 12 01:35:19 2019, MaxMem=   671088640 cpu:              15.9 elap:               0.8
 (Enter /shared/centos7/gaussian/g16/l502.exe)
 Integral symmetry usage will be decided dynamically.
 UHF open shell SCF:
 Using DIIS extrapolation, IDIIS=  1040.
 NGot=   671088640 LenX=   670903575 LenY=   670814925
 Requested convergence on RMS density matrix=1.00D-08 within 128 cycles.
 Requested convergence on MAX density matrix=1.00D-06.
 Requested convergence on             energy=1.00D-06.
 No special actions if energy rises.
 Fock matrices will be formed incrementally for  20 cycles.

 Cycle   1  Pass 1  IDiag  1:
 FoFJK:  IHMeth= 1 ICntrl=       0 DoSepK=F KAlg= 0 I1Cent=           0 FoldK=F
 IRaf= 970000000 NMat=       1 IRICut=       1 DoRegI=T DoRafI=F ISym2E= 0 IDoP0=0 IntGTp=1.
 FoFCou: FMM=F IPFlag=           0 FMFlag=      100000 FMFlg1=           0
         NFxFlg=           0 DoJE=F BraDBF=F KetDBF=F FulRan=T
         wScrn=  0.000000 ICntrl=         0 IOpCl=  1 I1Cent=           0 NGrid=           0
         NMat0=    1 NMatS0=      1 NMatT0=    0 NMatD0=    1 NMtDS0=    0 NMtDT0=    0
 Symmetry not used in FoFCou.
 E= -306.827096694728    
 DIIS: error= 2.10D-02 at cycle   1 NSaved=   1.
 NSaved= 1 IEnMin= 1 EnMin= -306.827096694728     IErMin= 1 ErrMin= 2.10D-02
 ErrMax= 2.10D-02  0.00D+00 EMaxC= 1.00D-01 BMatC= 9.84D-01 BMatP= 9.84D-01
 IDIUse=3 WtCom= 7.90D-01 WtEn= 2.10D-01
 Coeff-Com:  0.100D+01
 Coeff-En:   0.100D+01
 Coeff:      0.100D+01
 Gap=     0.279 Goal=   None    Shift=    0.000
 Gap=     0.373 Goal=   None    Shift=    0.000
 GapD=    0.279 DampG=1.000 DampE=0.500 DampFc=0.5000 IDamp=-1.
 Damping current iteration by 5.00D-01
 RMSDP=2.51D-03 MaxDP=8.73D-02              OVMax= 1.79D-01

 Cycle   2  Pass 1  IDiag  1:
 RMSU=  1.24D-03    CP:  9.83D-01
 E= -306.910800415919     Delta-E=       -0.083703721192 Rises=F Damp=T
 DIIS: error= 5.70D-03 at cycle   2 NSaved=   2.
 NSaved= 2 IEnMin= 2 EnMin= -306.910800415919     IErMin= 2 ErrMin= 5.70D-03
 ErrMax= 5.70D-03  0.00D+00 EMaxC= 1.00D-01 BMatC= 8.91D-02 BMatP= 9.84D-01
 IDIUse=3 WtCom= 9.43D-01 WtEn= 5.70D-02
 Coeff-Com: -0.345D-01 0.103D+01
 Coeff-En:   0.000D+00 0.100D+01
 Coeff:     -0.326D-01 0.103D+01
 Gap=     0.280 Goal=   None    Shift=    0.000
 Gap=     0.343 Goal=   None    Shift=    0.000
 RMSDP=8.97D-04 MaxDP=3.89D-02 DE=-8.37D-02 OVMax= 8.84D-02

 Cycle   3  Pass 1  IDiag  1:
 RMSU=  8.78D-04    CP:  9.67D-01  1.07D+00
 E= -306.992570392309     Delta-E=       -0.081769976390 Rises=F Damp=F
 DIIS: error= 5.34D-03 at cycle   3 NSaved=   3.
 NSaved= 3 IEnMin= 3 EnMin= -306.992570392309     IErMin= 3 ErrMin= 5.34D-03
 ErrMax= 5.34D-03  0.00D+00 EMaxC= 1.00D-01 BMatC= 5.87D-02 BMatP= 8.91D-02
 IDIUse=3 WtCom= 9.47D-01 WtEn= 5.34D-02
 Coeff-Com: -0.970D-01 0.488D+00 0.609D+00
 Coeff-En:   0.000D+00 0.000D+00 0.100D+01
 Coeff:     -0.918D-01 0.462D+00 0.630D+00
 Gap=     0.293 Goal=   None    Shift=    0.000
 Gap=     0.312 Goal=   None    Shift=    0.000
 RMSDP=3.87D-04 MaxDP=1.47D-02 DE=-8.18D-02 OVMax= 4.32D-02

 Cycle   4  Pass 1  IDiag  1:
 RMSU=  3.32D-04    CP:  9.68D-01  1.18D+00  8.43D-01
 E= -307.001535155923     Delta-E=       -0.008964763614 Rises=F Damp=F
 DIIS: error= 1.70D-03 at cycle   4 NSaved=   4.
 NSaved= 4 IEnMin= 4 EnMin= -307.001535155923     IErMin= 4 ErrMin= 1.70D-03
 ErrMax= 1.70D-03  0.00D+00 EMaxC= 1.00D-01 BMatC= 9.53D-03 BMatP= 5.87D-02
 IDIUse=3 WtCom= 9.83D-01 WtEn= 1.70D-02
 Coeff-Com: -0.349D-01 0.830D-01 0.323D+00 0.629D+00
 Coeff-En:   0.000D+00 0.000D+00 0.117D+00 0.883D+00
 Coeff:     -0.343D-01 0.816D-01 0.320D+00 0.633D+00
 Gap=     0.288 Goal=   None    Shift=    0.000
 Gap=     0.318 Goal=   None    Shift=    0.000
 RMSDP=1.34D-04 MaxDP=4.74D-03 DE=-8.96D-03 OVMax= 1.40D-02

 Cycle   5  Pass 1  IDiag  1:
 RMSU=  7.42D-05    CP:  9.66D-01  1.16D+00  9.15D-01  7.37D-01
 E= -307.003387736065     Delta-E=       -0.001852580142 Rises=F Damp=F
 DIIS: error= 4.32D-04 at cycle   5 NSaved=   5.
 NSaved= 5 IEnMin= 5 EnMin= -307.003387736065     IErMin= 5 ErrMin= 4.32D-04
 ErrMax= 4.32D-04  0.00D+00 EMaxC= 1.00D-01 BMatC= 3.33D-04 BMatP= 9.53D-03
 IDIUse=3 WtCom= 9.96D-01 WtEn= 4.32D-03
 Coeff-Com: -0.764D-02 0.829D-02 0.929D-01 0.241D+00 0.666D+00
 Coeff-En:   0.000D+00 0.000D+00 0.000D+00 0.000D+00 0.100D+01
 Coeff:     -0.761D-02 0.826D-02 0.925D-01 0.240D+00 0.667D+00
 Gap=     0.288 Goal=   None    Shift=    0.000
 Gap=     0.318 Goal=   None    Shift=    0.000
 RMSDP=3.32D-05 MaxDP=1.32D-03 DE=-1.85D-03 OVMax= 3.37D-03

 Cycle   6  Pass 1  IDiag  1:
 RMSU=  3.04D-05    CP:  9.66D-01  1.16D+00  9.25D-01  7.65D-01  1.01D+00
 E= -307.003468030449     Delta-E=       -0.000080294384 Rises=F Damp=F
 DIIS: error= 1.78D-04 at cycle   6 NSaved=   6.
 NSaved= 6 IEnMin= 6 EnMin= -307.003468030449     IErMin= 6 ErrMin= 1.78D-04
 ErrMax= 1.78D-04  0.00D+00 EMaxC= 1.00D-01 BMatC= 6.42D-05 BMatP= 3.33D-04
 IDIUse=3 WtCom= 9.98D-01 WtEn= 1.78D-03
 Coeff-Com:  0.448D-02-0.149D-01-0.317D-01-0.470D-01 0.242D+00 0.847D+00
 Coeff-En:   0.000D+00 0.000D+00 0.000D+00 0.000D+00 0.000D+00 0.100D+01
 Coeff:      0.447D-02-0.149D-01-0.316D-01-0.469D-01 0.241D+00 0.848D+00
 Gap=     0.289 Goal=   None    Shift=    0.000
 Gap=     0.319 Goal=   None    Shift=    0.000
 RMSDP=2.17D-05 MaxDP=8.47D-04 DE=-8.03D-05 OVMax= 3.23D-03

 Cycle   7  Pass 1  IDiag  1:
 RMSU=  1.50D-05    CP:  9.66D-01  1.16D+00  9.32D-01  7.76D-01  1.17D+00
                    CP:  1.23D+00
 E= -307.003492411512     Delta-E=       -0.000024381064 Rises=F Damp=F
 DIIS: error= 6.13D-05 at cycle   7 NSaved=   7.
 NSaved= 7 IEnMin= 7 EnMin= -307.003492411512     IErMin= 7 ErrMin= 6.13D-05
 ErrMax= 6.13D-05  0.00D+00 EMaxC= 1.00D-01 BMatC= 7.88D-06 BMatP= 6.42D-05
 IDIUse=1 WtCom= 1.00D+00 WtEn= 0.00D+00
 Coeff-Com:  0.270D-02-0.530D-02-0.250D-01-0.624D-01-0.699D-01 0.219D+00
 Coeff-Com:  0.941D+00
 Coeff:      0.270D-02-0.530D-02-0.250D-01-0.624D-01-0.699D-01 0.219D+00
 Coeff:      0.941D+00
 Gap=     0.289 Goal=   None    Shift=    0.000
 Gap=     0.320 Goal=   None    Shift=    0.000
 RMSDP=1.07D-05 MaxDP=6.14D-04 DE=-2.44D-05 OVMax= 1.81D-03

 Cycle   8  Pass 1  IDiag  1:
 RMSU=  5.66D-06    CP:  9.66D-01  1.16D+00  9.33D-01  7.75D-01  1.25D+00
                    CP:  1.42D+00  1.26D+00
 E= -307.003496289272     Delta-E=       -0.000003877760 Rises=F Damp=F
 DIIS: error= 2.13D-05 at cycle   8 NSaved=   8.
 NSaved= 8 IEnMin= 8 EnMin= -307.003496289272     IErMin= 8 ErrMin= 2.13D-05
 ErrMax= 2.13D-05  0.00D+00 EMaxC= 1.00D-01 BMatC= 8.08D-07 BMatP= 7.88D-06
 IDIUse=1 WtCom= 1.00D+00 WtEn= 0.00D+00
 Coeff-Com:  0.350D-03-0.285D-03-0.424D-02-0.146D-01-0.437D-01-0.304D-02
 Coeff-Com:  0.286D+00 0.779D+00
 Coeff:      0.350D-03-0.285D-03-0.424D-02-0.146D-01-0.437D-01-0.304D-02
 Coeff:      0.286D+00 0.779D+00
 Gap=     0.289 Goal=   None    Shift=    0.000
 Gap=     0.320 Goal=   None    Shift=    0.000
 RMSDP=2.44D-06 MaxDP=1.01D-04 DE=-3.88D-06 OVMax= 2.96D-04

 Cycle   9  Pass 1  IDiag  1:
 RMSU=  1.62D-06    CP:  9.66D-01  1.16D+00  9.33D-01  7.75D-01  1.26D+00
                    CP:  1.46D+00  1.35D+00  1.05D+00
 E= -307.003496573462     Delta-E=       -0.000000284190 Rises=F Damp=F
 DIIS: error= 6.69D-06 at cycle   9 NSaved=   9.
 NSaved= 9 IEnMin= 9 EnMin= -307.003496573462     IErMin= 9 ErrMin= 6.69D-06
 ErrMax= 6.69D-06  0.00D+00 EMaxC= 1.00D-01 BMatC= 7.90D-08 BMatP= 8.08D-07
 IDIUse=1 WtCom= 1.00D+00 WtEn= 0.00D+00
 Coeff-Com: -0.370D-03 0.804D-03 0.298D-02 0.690D-02 0.180D-02-0.273D-01
 Coeff-Com: -0.924D-01 0.118D+00 0.990D+00
 Coeff:     -0.370D-03 0.804D-03 0.298D-02 0.690D-02 0.180D-02-0.273D-01
 Coeff:     -0.924D-01 0.118D+00 0.990D+00
 Gap=     0.289 Goal=   None    Shift=    0.000
 Gap=     0.320 Goal=   None    Shift=    0.000
 RMSDP=1.17D-06 MaxDP=5.85D-05 DE=-2.84D-07 OVMax= 1.38D-04

 Cycle  10  Pass 1  IDiag  1:
 RMSU=  7.56D-07    CP:  9.66D-01  1.16D+00  9.33D-01  7.75D-01  1.25D+00
                    CP:  1.46D+00  1.38D+00  1.16D+00  1.22D+00
 E= -307.003496618093     Delta-E=       -0.000000044631 Rises=F Damp=F
 DIIS: error= 1.77D-06 at cycle  10 NSaved=  10.
 NSaved=10 IEnMin=10 EnMin= -307.003496618093     IErMin=10 ErrMin= 1.77D-06
 ErrMax= 1.77D-06  0.00D+00 EMaxC= 1.00D-01 BMatC= 7.46D-09 BMatP= 7.90D-08
 IDIUse=1 WtCom= 1.00D+00 WtEn= 0.00D+00
 Coeff-Com: -0.665D-04 0.109D-03 0.591D-03 0.193D-02 0.367D-02-0.232D-02
 Coeff-Com: -0.337D-01-0.546D-01 0.853D-01 0.999D+00
 Coeff:     -0.665D-04 0.109D-03 0.591D-03 0.193D-02 0.367D-02-0.232D-02
 Coeff:     -0.337D-01-0.546D-01 0.853D-01 0.999D+00
 Gap=     0.289 Goal=   None    Shift=    0.000
 Gap=     0.320 Goal=   None    Shift=    0.000
 RMSDP=4.48D-07 MaxDP=2.56D-05 DE=-4.46D-08 OVMax= 6.17D-05

 Cycle  11  Pass 1  IDiag  1:
 RMSU=  2.99D-07    CP:  9.66D-01  1.16D+00  9.33D-01  7.75D-01  1.25D+00
                    CP:  1.46D+00  1.38D+00  1.18D+00  1.37D+00  1.10D+00
 E= -307.003496624213     Delta-E=       -0.000000006120 Rises=F Damp=F
 DIIS: error= 8.43D-07 at cycle  11 NSaved=  11.
 NSaved=11 IEnMin=11 EnMin= -307.003496624213     IErMin=11 ErrMin= 8.43D-07
 ErrMax= 8.43D-07  0.00D+00 EMaxC= 1.00D-01 BMatC= 1.25D-09 BMatP= 7.46D-09
 IDIUse=1 WtCom= 1.00D+00 WtEn= 0.00D+00
 Coeff-Com:  0.457D-04-0.978D-04-0.376D-03-0.785D-03 0.208D-03 0.326D-02
 Coeff-Com:  0.997D-02-0.188D-01-0.139D+00 0.874D-01 0.106D+01
 Coeff:      0.457D-04-0.978D-04-0.376D-03-0.785D-03 0.208D-03 0.326D-02
 Coeff:      0.997D-02-0.188D-01-0.139D+00 0.874D-01 0.106D+01
 Gap=     0.289 Goal=   None    Shift=    0.000
 Gap=     0.320 Goal=   None    Shift=    0.000
 RMSDP=1.90D-07 MaxDP=7.99D-06 DE=-6.12D-09 OVMax= 3.29D-05

 Cycle  12  Pass 1  IDiag  1:
 RMSU=  7.94D-08    CP:  9.66D-01  1.16D+00  9.33D-01  7.75D-01  1.26D+00
                    CP:  1.47D+00  1.38D+00  1.19D+00  1.42D+00  1.25D+00
                    CP:  1.36D+00
 E= -307.003496625476     Delta-E=       -0.000000001263 Rises=F Damp=F
 DIIS: error= 4.18D-07 at cycle  12 NSaved=  12.
 NSaved=12 IEnMin=12 EnMin= -307.003496625476     IErMin=12 ErrMin= 4.18D-07
 ErrMax= 4.18D-07  0.00D+00 EMaxC= 1.00D-01 BMatC= 2.04D-10 BMatP= 1.25D-09
 IDIUse=1 WtCom= 1.00D+00 WtEn= 0.00D+00
 Coeff-Com:  0.124D-04-0.246D-04-0.116D-03-0.318D-03-0.416D-03 0.584D-03
 Coeff-Com:  0.533D-02 0.550D-02-0.244D-01-0.122D+00 0.110D+00 0.103D+01
 Coeff:      0.124D-04-0.246D-04-0.116D-03-0.318D-03-0.416D-03 0.584D-03
 Coeff:      0.533D-02 0.550D-02-0.244D-01-0.122D+00 0.110D+00 0.103D+01
 Gap=     0.289 Goal=   None    Shift=    0.000
 Gap=     0.320 Goal=   None    Shift=    0.000
 RMSDP=7.44D-08 MaxDP=2.44D-06 DE=-1.26D-09 OVMax= 1.24D-05

 Cycle  13  Pass 1  IDiag  1:
 RMSU=  3.47D-08    CP:  9.66D-01  1.16D+00  9.33D-01  7.75D-01  1.26D+00
                    CP:  1.47D+00  1.38D+00  1.19D+00  1.42D+00  1.28D+00
                    CP:  1.52D+00  1.35D+00
 E= -307.003496625688     Delta-E=       -0.000000000211 Rises=F Damp=F
 DIIS: error= 1.71D-07 at cycle  13 NSaved=  13.
 NSaved=13 IEnMin=13 EnMin= -307.003496625688     IErMin=13 ErrMin= 1.71D-07
 ErrMax= 1.71D-07  0.00D+00 EMaxC= 1.00D-01 BMatC= 4.86D-11 BMatP= 2.04D-10
 IDIUse=1 WtCom= 1.00D+00 WtEn= 0.00D+00
 Coeff-Com: -0.614D-05 0.138D-04 0.451D-04 0.761D-04-0.139D-03-0.453D-03
 Coeff-Com: -0.640D-03 0.473D-02 0.220D-01-0.538D-01-0.187D+00 0.283D+00
 Coeff-Com:  0.932D+00
 Coeff:     -0.614D-05 0.138D-04 0.451D-04 0.761D-04-0.139D-03-0.453D-03
 Coeff:     -0.640D-03 0.473D-02 0.220D-01-0.538D-01-0.187D+00 0.283D+00
 Coeff:      0.932D+00
 Gap=     0.289 Goal=   None    Shift=    0.000
 Gap=     0.320 Goal=   None    Shift=    0.000
 RMSDP=3.45D-08 MaxDP=1.28D-06 DE=-2.11D-10 OVMax= 5.71D-06

 Cycle  14  Pass 1  IDiag  1:
 RMSU=  1.46D-08    CP:  9.66D-01  1.16D+00  9.33D-01  7.75D-01  1.26D+00
                    CP:  1.47D+00  1.38D+00  1.19D+00  1.43D+00  1.29D+00
                    CP:  1.58D+00  1.60D+00  1.28D+00
 E= -307.003496625730     Delta-E=       -0.000000000042 Rises=F Damp=F
 DIIS: error= 7.02D-08 at cycle  14 NSaved=  14.
 NSaved=14 IEnMin=14 EnMin= -307.003496625730     IErMin=14 ErrMin= 7.02D-08
 ErrMax= 7.02D-08  0.00D+00 EMaxC= 1.00D-01 BMatC= 5.81D-12 BMatP= 4.86D-11
 IDIUse=1 WtCom= 1.00D+00 WtEn= 0.00D+00
 Coeff-Com: -0.268D-05 0.543D-05 0.259D-04 0.600D-04 0.362D-04-0.149D-03
 Coeff-Com: -0.948D-03-0.346D-03 0.749D-02 0.119D-01-0.404D-01-0.132D+00
 Coeff-Com:  0.108D+00 0.105D+01
 Coeff:     -0.268D-05 0.543D-05 0.259D-04 0.600D-04 0.362D-04-0.149D-03
 Coeff:     -0.948D-03-0.346D-03 0.749D-02 0.119D-01-0.404D-01-0.132D+00
 Coeff:      0.108D+00 0.105D+01
 Gap=     0.289 Goal=   None    Shift=    0.000
 Gap=     0.320 Goal=   None    Shift=    0.000
 RMSDP=1.28D-08 MaxDP=5.04D-07 DE=-4.18D-11 OVMax= 1.75D-06

 Cycle  15  Pass 1  IDiag  1:
 RMSU=  5.97D-09    CP:  9.66D-01  1.16D+00  9.33D-01  7.75D-01  1.26D+00
                    CP:  1.47D+00  1.38D+00  1.19D+00  1.43D+00  1.29D+00
                    CP:  1.58D+00  1.68D+00  1.50D+00  1.31D+00
 E= -307.003496625735     Delta-E=       -0.000000000006 Rises=F Damp=F
 DIIS: error= 2.84D-08 at cycle  15 NSaved=  15.
 NSaved=15 IEnMin=15 EnMin= -307.003496625735     IErMin=15 ErrMin= 2.84D-08
 ErrMax= 2.84D-08  0.00D+00 EMaxC= 1.00D-01 BMatC= 8.34D-13 BMatP= 5.81D-12
 IDIUse=1 WtCom= 1.00D+00 WtEn= 0.00D+00
 Coeff-Com:  0.585D-06-0.123D-05-0.203D-05-0.405D-05 0.162D-04 0.342D-04
 Coeff-Com: -0.370D-05-0.522D-03-0.185D-02 0.685D-02 0.182D-01-0.397D-01
 Coeff-Com: -0.103D+00 0.676D-01 0.105D+01
 Coeff:      0.585D-06-0.123D-05-0.203D-05-0.405D-05 0.162D-04 0.342D-04
 Coeff:     -0.370D-05-0.522D-03-0.185D-02 0.685D-02 0.182D-01-0.397D-01
 Coeff:     -0.103D+00 0.676D-01 0.105D+01
 Gap=     0.289 Goal=   None    Shift=    0.000
 Gap=     0.320 Goal=   None    Shift=    0.000
 RMSDP=5.09D-09 MaxDP=2.82D-07 DE=-5.68D-12 OVMax= 6.78D-07

 SCF Done:  E(UM062X) =  -307.003496626     A.U. after   15 cycles
            NFock= 15  Conv=0.51D-08     -V/T= 2.0035
 <Sx>= 0.0000 <Sy>= 0.0000 <Sz>= 0.5000 <S**2>= 0.7555 S= 0.5028
 <L.S>= 0.000000000000E+00
 KE= 3.059327030189D+02 PE=-1.194353815910D+03 EE= 3.433912921869D+02
 Annihilation of the first spin contaminant:
 S**2 before annihilation     0.7555,   after     0.7500
 Leave Link  502 at Tue Mar 12 01:36:08 2019, MaxMem=   671088640 cpu:             967.9 elap:              48.5
 (Enter /shared/centos7/gaussian/g16/l801.exe)
 DoSCS=F DFT=T ScalE2(SS,OS)=  1.000000  1.000000
 Range of M.O.s used for correlation:     1   267
 NBasis=   267 NAE=    24 NBE=    23 NFC=     0 NFV=     0
 NROrb=    267 NOA=    24 NOB=    23 NVA=   243 NVB=   244

 **** Warning!!: The largest alpha MO coefficient is  0.51531651D+02


 **** Warning!!: The largest beta MO coefficient is  0.46345439D+02

 Leave Link  801 at Tue Mar 12 01:36:08 2019, MaxMem=   671088640 cpu:               0.4 elap:               0.0
 (Enter /shared/centos7/gaussian/g16/l1101.exe)
 Using compressed storage, NAtomX=    13.
 Will process     14 centers per pass.
 Leave Link 1101 at Tue Mar 12 01:36:08 2019, MaxMem=   671088640 cpu:               6.0 elap:               0.3
 (Enter /shared/centos7/gaussian/g16/l1102.exe)
 Symmetrizing basis deriv contribution to polar:
 IMax=3 JMax=2 DiffMx= 0.00D+00
 Leave Link 1102 at Tue Mar 12 01:36:08 2019, MaxMem=   671088640 cpu:               0.6 elap:               0.1
 (Enter /shared/centos7/gaussian/g16/l1110.exe)
 Forming Gx(P) for the SCF density, NAtomX=    13.
 Integral derivatives from FoFJK, PRISM(SPDF).
 Do as many integral derivatives as possible in FoFJK.
 G2DrvN: MDV=     671087568.
 G2DrvN: will do    14 centers at a time, making    1 passes.
 Calling FoFCou, ICntrl=  3107 FMM=F I1Cent=   0 AccDes= 0.00D+00.
 FoFJK:  IHMeth= 1 ICntrl=    3107 DoSepK=F KAlg= 0 I1Cent=           0 FoldK=F
 IRaf=         0 NMat=       1 IRICut=       1 DoRegI=T DoRafI=F ISym2E= 0 IDoP0=0 IntGTp=1.
 FoFCou: FMM=F IPFlag=           0 FMFlag=      100000 FMFlg1=           0
         NFxFlg=           0 DoJE=F BraDBF=F KetDBF=F FulRan=T
         wScrn=  0.000000 ICntrl=      3107 IOpCl=  1 I1Cent=           0 NGrid=           0
         NMat0=    1 NMatS0=      1 NMatT0=    0 NMatD0=    1 NMtDS0=    0 NMtDT0=    0
 Symmetry not used in FoFCou.
 End of G2Drv F.D. properties file   721 does not exist.
 End of G2Drv F.D. properties file   722 does not exist.
 End of G2Drv F.D. properties file   788 does not exist.
 Leave Link 1110 at Tue Mar 12 01:37:28 2019, MaxMem=   671088640 cpu:            1598.7 elap:              80.0
 (Enter /shared/centos7/gaussian/g16/l1002.exe)
 Minotr:  UHF open shell wavefunction.
          IDoAtm=1111111111111
          Direct CPHF calculation.
          Differentiating once with respect to nuclear coordinates.
          Requested convergence is 1.0D-08 RMS, and 1.0D-07 maximum.
          Secondary convergence is 1.0D-12 RMS, and 1.0D-12 maximum.
          NewPWx=T KeepS1=F KeepF1=F KeepIn=T MapXYZ=F SortEE=F KeepMc=T.
         3959 words used for storage of precomputed grid.
 Two-electron integrals replicated using symmetry.
          MDV=     671088640 using IRadAn=       1.
          Solving linear equations simultaneously, MaxMat=     380.
 FoF2E skips out because all densities are zero.
 CalDSu exits because no D1Ps are significant.
 FoFJK:  IHMeth= 1 ICntrl=       0 DoSepK=F KAlg= 0 I1Cent=           0 FoldK=F
 IRaf= 960000000 NMat=      39 IRICut=      97 DoRegI=T DoRafI=T ISym2E= 2 IDoP0=3 IntGTp=3.
 FoFCou: FMM=F IPFlag=           0 FMFlag=      100000 FMFlg1=           0
         NFxFlg=           0 DoJE=F BraDBF=F KetDBF=F FulRan=T
         wScrn=  0.000000 ICntrl=         0 IOpCl=  1 I1Cent=           0 NGrid=           0
         NMat0=   39 NMatS0=     39 NMatT0=    0 NMatD0=   39 NMtDS0=    0 NMtDT0=    0
 Integrals replicated using symmetry in FoFCou.
 Raff kept on since  94.23% of shell-pairs survive, threshold=   0.20 IRatSp=94.
          There are    42 degrees of freedom in the 1st order CPHF.  IDoFFX=6 NUNeed=     0.
     36 vectors produced by pass  0 Test12= 2.72D-14 2.38D-09 XBig12= 1.44D-01 1.08D-01.
 AX will form    36 AO Fock derivatives at one time.
     36 vectors produced by pass  1 Test12= 2.72D-14 2.38D-09 XBig12= 1.94D-02 3.30D-02.
     36 vectors produced by pass  2 Test12= 2.72D-14 2.38D-09 XBig12= 8.09D-04 4.48D-03.
     36 vectors produced by pass  3 Test12= 2.72D-14 2.38D-09 XBig12= 1.05D-05 5.44D-04.
     36 vectors produced by pass  4 Test12= 2.72D-14 2.38D-09 XBig12= 1.67D-07 8.20D-05.
     36 vectors produced by pass  5 Test12= 2.72D-14 2.38D-09 XBig12= 2.34D-09 4.55D-06.
     36 vectors produced by pass  6 Test12= 2.72D-14 2.38D-09 XBig12= 1.98D-11 4.22D-07.
     15 vectors produced by pass  7 Test12= 2.72D-14 2.38D-09 XBig12= 1.53D-13 3.59D-08.
      2 vectors produced by pass  8 Test12= 2.72D-14 2.38D-09 XBig12= 1.16D-15 2.75D-09.
 InvSVY:  IOpt=1 It=  1 EMax= 1.67D-15
 Solved reduced A of dimension   269 with    36 vectors.
 End of Minotr F.D. properties file   721 does not exist.
 End of Minotr F.D. properties file   722 does not exist.
 End of Minotr F.D. properties file   788 does not exist.
 Leave Link 1002 at Tue Mar 12 01:39:35 2019, MaxMem=   671088640 cpu:            2533.4 elap:             126.7
 (Enter /shared/centos7/gaussian/g16/l601.exe)
 Copying SCF densities to generalized density rwf, IOpCl= 1 IROHF=0.

 **********************************************************************

            Population analysis using the SCF density.

 **********************************************************************

 Orbital symmetries:
 Alpha Orbitals:
       Occupied  (A) (A) (A) (A) (A) (A) (A) (A) (A) (A) (A) (A)
                 (A) (A) (A) (A) (A) (A) (A) (A) (A) (A) (A) (A)
       Virtual   (A) (A) (A) (A) (A) (A) (A) (A) (A) (A) (A) (A)
                 (A) (A) (A) (A) (A) (A) (A) (A) (A) (A) (A) (A)
                 (A) (A) (A) (A) (A) (A) (A) (A) (A) (A) (A) (A)
                 (A) (A) (A) (A) (A) (A) (A) (A) (A) (A) (A) (A)
                 (A) (A) (A) (A) (A) (A) (A) (A) (A) (A) (A) (A)
                 (A) (A) (A) (A) (A) (A) (A) (A) (A) (A) (A) (A)
                 (A) (A) (A) (A) (A) (A) (A) (A) (A) (A) (A) (A)
                 (A) (A) (A) (A) (A) (A) (A) (A) (A) (A) (A) (A)
                 (A) (A) (A) (A) (A) (A) (A) (A) (A) (A) (A) (A)
                 (A) (A) (A) (A) (A) (A) (A) (A) (A) (A) (A) (A)
                 (A) (A) (A) (A) (A) (A) (A) (A) (A) (A) (A) (A)
                 (A) (A) (A) (A) (A) (A) (A) (A) (A) (A) (A) (A)
                 (A) (A) (A) (A) (A) (A) (A) (A) (A) (A) (A) (A)
                 (A) (A) (A) (A) (A) (A) (A) (A) (A) (A) (A) (A)
                 (A) (A) (A) (A) (A) (A) (A) (A) (A) (A) (A) (A)
                 (A) (A) (A) (A) (A) (A) (A) (A) (A) (A) (A) (A)
                 (A) (A) (A) (A) (A) (A) (A) (A) (A) (A) (A) (A)
                 (A) (A) (A) (A) (A) (A) (A) (A) (A) (A) (A) (A)
                 (A) (A) (A) (A) (A) (A) (A) (A) (A) (A) (A) (A)
                 (A) (A) (A) (A) (A) (A) (A) (A) (A) (A) (A) (A)
                 (A) (A) (A)
 Beta  Orbitals:
       Occupied  (A) (A) (A) (A) (A) (A) (A) (A) (A) (A) (A) (A)
                 (A) (A) (A) (A) (A) (A) (A) (A) (A) (A) (A)
       Virtual   (A) (A) (A) (A) (A) (A) (A) (A) (A) (A) (A) (A)
                 (A) (A) (A) (A) (A) (A) (A) (A) (A) (A) (A) (A)
                 (A) (A) (A) (A) (A) (A) (A) (A) (A) (A) (A) (A)
                 (A) (A) (A) (A) (A) (A) (A) (A) (A) (A) (A) (A)
                 (A) (A) (A) (A) (A) (A) (A) (A) (A) (A) (A) (A)
                 (A) (A) (A) (A) (A) (A) (A) (A) (A) (A) (A) (A)
                 (A) (A) (A) (A) (A) (A) (A) (A) (A) (A) (A) (A)
                 (A) (A) (A) (A) (A) (A) (A) (A) (A) (A) (A) (A)
                 (A) (A) (A) (A) (A) (A) (A) (A) (A) (A) (A) (A)
                 (A) (A) (A) (A) (A) (A) (A) (A) (A) (A) (A) (A)
                 (A) (A) (A) (A) (A) (A) (A) (A) (A) (A) (A) (A)
                 (A) (A) (A) (A) (A) (A) (A) (A) (A) (A) (A) (A)
                 (A) (A) (A) (A) (A) (A) (A) (A) (A) (A) (A) (A)
                 (A) (A) (A) (A) (A) (A) (A) (A) (A) (A) (A) (A)
                 (A) (A) (A) (A) (A) (A) (A) (A) (A) (A) (A) (A)
                 (A) (A) (A) (A) (A) (A) (A) (A) (A) (A) (A) (A)
                 (A) (A) (A) (A) (A) (A) (A) (A) (A) (A) (A) (A)
                 (A) (A) (A) (A) (A) (A) (A) (A) (A) (A) (A) (A)
                 (A) (A) (A) (A) (A) (A) (A) (A) (A) (A) (A) (A)
                 (A) (A) (A) (A) (A) (A) (A) (A) (A) (A) (A) (A)
                 (A) (A) (A) (A)
 The electronic state is 2-A.
 Alpha  occ. eigenvalues --  -19.67284 -19.61598 -10.67383 -10.59162 -10.55766
 Alpha  occ. eigenvalues --  -10.55723  -1.24266  -1.14753  -0.90329  -0.82163
 Alpha  occ. eigenvalues --   -0.73007  -0.65531  -0.58952  -0.57592  -0.57260
 Alpha  occ. eigenvalues --   -0.53612  -0.49866  -0.49074  -0.44872  -0.43941
 Alpha  occ. eigenvalues --   -0.43690  -0.38259  -0.36973  -0.27443
 Alpha virt. eigenvalues --    0.01475   0.02792   0.03248   0.04172   0.04899
 Alpha virt. eigenvalues --    0.05781   0.06260   0.06578   0.08026   0.09151
 Alpha virt. eigenvalues --    0.09339   0.10766   0.11492   0.13008   0.13681
 Alpha virt. eigenvalues --    0.15652   0.16006   0.18994   0.19554   0.20574
 Alpha virt. eigenvalues --    0.21306   0.22539   0.23547   0.24684   0.25771
 Alpha virt. eigenvalues --    0.27435   0.28367   0.29132   0.29805   0.30030
 Alpha virt. eigenvalues --    0.32803   0.33241   0.34292   0.36372   0.38180
 Alpha virt. eigenvalues --    0.40453   0.43598   0.43849   0.45167   0.49310
 Alpha virt. eigenvalues --    0.49839   0.51273   0.53689   0.54146   0.54776
 Alpha virt. eigenvalues --    0.55773   0.56439   0.58061   0.59091   0.60653
 Alpha virt. eigenvalues --    0.62599   0.63018   0.64728   0.66159   0.67475
 Alpha virt. eigenvalues --    0.68768   0.70537   0.72977   0.74235   0.77558
 Alpha virt. eigenvalues --    0.80560   0.81883   0.82962   0.86486   0.88279
 Alpha virt. eigenvalues --    0.89482   0.93055   0.96569   0.98125   0.98403
 Alpha virt. eigenvalues --    1.02564   1.05795   1.07515   1.07790   1.09666
 Alpha virt. eigenvalues --    1.10661   1.13114   1.15578   1.17209   1.17749
 Alpha virt. eigenvalues --    1.18763   1.21102   1.21799   1.22940   1.23309
 Alpha virt. eigenvalues --    1.25350   1.28888   1.30097   1.33844   1.35654
 Alpha virt. eigenvalues --    1.35815   1.37752   1.39297   1.40886   1.42938
 Alpha virt. eigenvalues --    1.44216   1.44914   1.46579   1.48284   1.49845
 Alpha virt. eigenvalues --    1.54082   1.55943   1.59154   1.59862   1.64275
 Alpha virt. eigenvalues --    1.69672   1.71270   1.71908   1.73669   1.81270
 Alpha virt. eigenvalues --    1.83972   1.93353   2.05432   2.10004   2.16397
 Alpha virt. eigenvalues --    2.29315   2.32491   2.40222   2.44957   2.48202
 Alpha virt. eigenvalues --    2.50838   2.54421   2.59908   2.63469   2.66448
 Alpha virt. eigenvalues --    2.72190   2.72785   2.77314   2.81788   2.83749
 Alpha virt. eigenvalues --    2.87223   2.92244   2.95788   2.96150   2.97136
 Alpha virt. eigenvalues --    2.99058   3.01270   3.02445   3.04487   3.06939
 Alpha virt. eigenvalues --    3.07246   3.11911   3.12263   3.12908   3.15056
 Alpha virt. eigenvalues --    3.18582   3.20288   3.22900   3.24155   3.27530
 Alpha virt. eigenvalues --    3.28841   3.32746   3.33940   3.34379   3.38773
 Alpha virt. eigenvalues --    3.41887   3.42962   3.45628   3.48131   3.50287
 Alpha virt. eigenvalues --    3.53866   3.54184   3.57802   3.61749   3.64331
 Alpha virt. eigenvalues --    3.66503   3.69491   3.72778   3.75545   3.78263
 Alpha virt. eigenvalues --    3.84419   3.86461   3.87582   3.88188   3.93169
 Alpha virt. eigenvalues --    3.98034   4.00126   4.02456   4.06487   4.08389
 Alpha virt. eigenvalues --    4.11037   4.13549   4.16573   4.18720   4.18944
 Alpha virt. eigenvalues --    4.19490   4.26041   4.30090   4.31362   4.34770
 Alpha virt. eigenvalues --    4.35530   4.37114   4.40641   4.43439   4.47324
 Alpha virt. eigenvalues --    4.51233   4.58274   4.64175   4.90877   4.92988
 Alpha virt. eigenvalues --    4.97709   5.08232   5.10844   5.16314   5.21432
 Alpha virt. eigenvalues --    5.21985   5.24428   5.26600   5.37141   5.45177
 Alpha virt. eigenvalues --    5.48981   5.49550   5.50148   5.52939   5.56496
 Alpha virt. eigenvalues --    5.58684   5.61200   5.68476   5.74445   5.78635
 Alpha virt. eigenvalues --    6.00444   6.08232   6.39857   6.46116   6.67668
 Alpha virt. eigenvalues --    6.83262   6.95153   7.05047   7.11475   7.15523
 Alpha virt. eigenvalues --    7.19584   7.25024   7.31776   7.52876   7.66652
 Alpha virt. eigenvalues --    7.76780   7.82762  24.21451  24.43535  24.47571
 Alpha virt. eigenvalues --   24.84550  50.17794  50.31226
  Beta  occ. eigenvalues --  -19.67268 -19.61567 -10.67272 -10.59162 -10.55810
  Beta  occ. eigenvalues --  -10.55052  -1.24172  -1.14661  -0.89088  -0.81484
  Beta  occ. eigenvalues --   -0.70180  -0.65288  -0.58401  -0.57364  -0.56964
  Beta  occ. eigenvalues --   -0.52834  -0.49296  -0.48593  -0.44353  -0.43553
  Beta  occ. eigenvalues --   -0.43386  -0.38132  -0.35978
  Beta virt. eigenvalues --   -0.03996   0.01006   0.02448   0.03196   0.04099
  Beta virt. eigenvalues --    0.04738   0.05925   0.06185   0.07349   0.08012
  Beta virt. eigenvalues --    0.08933   0.09298   0.10561   0.12277   0.12488
  Beta virt. eigenvalues --    0.13040   0.15681   0.16032   0.19191   0.19639
  Beta virt. eigenvalues --    0.20649   0.21271   0.22719   0.23893   0.24711
  Beta virt. eigenvalues --    0.25665   0.27585   0.28240   0.29104   0.29719
  Beta virt. eigenvalues --    0.30294   0.32865   0.33273   0.34342   0.36483
  Beta virt. eigenvalues --    0.38098   0.40616   0.43645   0.44006   0.45169
  Beta virt. eigenvalues --    0.49252   0.49855   0.51760   0.53626   0.54628
  Beta virt. eigenvalues --    0.55106   0.55993   0.56781   0.59159   0.59568
  Beta virt. eigenvalues --    0.61234   0.62632   0.63323   0.64686   0.66259
  Beta virt. eigenvalues --    0.68142   0.69101   0.70749   0.72778   0.73951
  Beta virt. eigenvalues --    0.77614   0.80600   0.81688   0.82908   0.86610
  Beta virt. eigenvalues --    0.88153   0.89469   0.92733   0.96521   0.97231
  Beta virt. eigenvalues --    0.97338   1.02732   1.05822   1.07342   1.07836
  Beta virt. eigenvalues --    1.09286   1.10657   1.13131   1.15626   1.17292
  Beta virt. eigenvalues --    1.17722   1.18950   1.21141   1.21935   1.23019
  Beta virt. eigenvalues --    1.23426   1.25212   1.28847   1.30319   1.33948
  Beta virt. eigenvalues --    1.35757   1.35967   1.37964   1.39495   1.40987
  Beta virt. eigenvalues --    1.42960   1.44520   1.45149   1.47348   1.48581
  Beta virt. eigenvalues --    1.50477   1.54083   1.55920   1.59246   1.61225
  Beta virt. eigenvalues --    1.64338   1.69689   1.71407   1.71943   1.73728
  Beta virt. eigenvalues --    1.81234   1.84029   1.93392   2.05559   2.10141
  Beta virt. eigenvalues --    2.16606   2.29414   2.32662   2.40231   2.45661
  Beta virt. eigenvalues --    2.48431   2.50997   2.54996   2.60796   2.63933
  Beta virt. eigenvalues --    2.68806   2.72732   2.74287   2.78220   2.83698
  Beta virt. eigenvalues --    2.85940   2.90465   2.94402   2.96058   2.97798
  Beta virt. eigenvalues --    2.97989   3.01701   3.03370   3.04272   3.06258
  Beta virt. eigenvalues --    3.08247   3.10283   3.12402   3.13479   3.15196
  Beta virt. eigenvalues --    3.16042   3.21833   3.22003   3.25601   3.27859
  Beta virt. eigenvalues --    3.28489   3.30473   3.34153   3.35788   3.36577
  Beta virt. eigenvalues --    3.41307   3.42462   3.43653   3.48698   3.48837
  Beta virt. eigenvalues --    3.51556   3.54481   3.55499   3.60165   3.63051
  Beta virt. eigenvalues --    3.64749   3.67081   3.70607   3.73882   3.75670
  Beta virt. eigenvalues --    3.79729   3.85578   3.86715   3.87636   3.88219
  Beta virt. eigenvalues --    3.93367   3.99441   4.01893   4.03005   4.07604
  Beta virt. eigenvalues --    4.09623   4.13210   4.13920   4.18621   4.20675
  Beta virt. eigenvalues --    4.21221   4.22556   4.26836   4.30269   4.31492
  Beta virt. eigenvalues --    4.35185   4.35970   4.38578   4.42830   4.43971
  Beta virt. eigenvalues --    4.47889   4.52240   4.59915   4.65649   4.91971
  Beta virt. eigenvalues --    4.95654   5.00765   5.08292   5.11466   5.16389
  Beta virt. eigenvalues --    5.22030   5.22906   5.25568   5.27004   5.37231
  Beta virt. eigenvalues --    5.45457   5.49638   5.51920   5.54115   5.55656
  Beta virt. eigenvalues --    5.56607   5.60266   5.61540   5.68475   5.74467
  Beta virt. eigenvalues --    5.78547   6.00477   6.08261   6.39923   6.46119
  Beta virt. eigenvalues --    6.67685   6.83383   6.95255   7.05035   7.11535
  Beta virt. eigenvalues --    7.15590   7.19635   7.25069   7.31856   7.52930
  Beta virt. eigenvalues --    7.66681   7.76803   7.82784  24.22500  24.43546
  Beta virt. eigenvalues --   24.48082  24.84602  50.17777  50.31199
          Condensed to atoms (all electrons):
               1          2          3          4          5          6
     1  O    8.213884  -0.096891  -0.119737   0.140556   0.157424  -0.026411
     2  O   -0.096891   8.159337   0.013455  -0.043082   0.377946  -0.026705
     3  C   -0.119737   0.013455   5.641969  -0.085920  -0.092233   0.132510
     4  C    0.140556  -0.043082  -0.085920   4.972395  -0.079786   0.003865
     5  C    0.157424   0.377946  -0.092233  -0.079786   5.625623  -0.119141
     6  C   -0.026411  -0.026705   0.132510   0.003865  -0.119141   5.600232
     7  H   -0.001741   0.004159   0.454601   0.003502  -0.072761  -0.045771
     8  H    0.007502  -0.005542   0.476368  -0.000925  -0.082684  -0.021653
     9  H   -0.035819  -0.003866  -0.002876   0.431230   0.004263  -0.001168
    10  H   -0.034529  -0.004290  -0.001800   0.427662   0.001266   0.001872
    11  H   -0.056866   0.003715   0.005329   0.423843   0.008902   0.000000
    12  H    0.000159   0.000143  -0.025168   0.000427  -0.008451   0.414267
    13  H   -0.001826   0.000265  -0.013559  -0.001260  -0.008777   0.406035
               7          8          9         10         11         12
     1  O   -0.001741   0.007502  -0.035819  -0.034529  -0.056866   0.000159
     2  O    0.004159  -0.005542  -0.003866  -0.004290   0.003715   0.000143
     3  C    0.454601   0.476368  -0.002876  -0.001800   0.005329  -0.025168
     4  C    0.003502  -0.000925   0.431230   0.427662   0.423843   0.000427
     5  C   -0.072761  -0.082684   0.004263   0.001266   0.008902  -0.008451
     6  C   -0.045771  -0.021653  -0.001168   0.001872   0.000000   0.414267
     7  H    0.505970  -0.023665   0.000020  -0.000057  -0.000011   0.003208
     8  H   -0.023665   0.480258   0.000012   0.000020   0.000007  -0.005774
     9  H    0.000020   0.000012   0.530057  -0.036813  -0.025248   0.000004
    10  H   -0.000057   0.000020  -0.036813   0.530285  -0.025273  -0.000007
    11  H   -0.000011   0.000007  -0.025248  -0.025273   0.532156  -0.000002
    12  H    0.003208  -0.005774   0.000004  -0.000007  -0.000002   0.463299
    13  H   -0.005533   0.002797  -0.000010   0.000059  -0.000001  -0.024325
              13
     1  O   -0.001826
     2  O    0.000265
     3  C   -0.013559
     4  C   -0.001260
     5  C   -0.008777
     6  C    0.406035
     7  H   -0.005533
     8  H    0.002797
     9  H   -0.000010
    10  H    0.000059
    11  H   -0.000001
    12  H   -0.024325
    13  H    0.465663
          Atomic-Atomic Spin Densities.
               1          2          3          4          5          6
     1  O    0.006142  -0.000844   0.010120   0.001207  -0.013582   0.000773
     2  O   -0.000844   0.023878   0.007234  -0.000667  -0.022264   0.005689
     3  C    0.010120   0.007234   0.002382  -0.000006  -0.066641  -0.043922
     4  C    0.001207  -0.000667  -0.000006   0.000330   0.001068   0.001853
     5  C   -0.013582  -0.022264  -0.066641   0.001068   0.209062  -0.051423
     6  C    0.000773   0.005689  -0.043922   0.001853  -0.051423   1.173585
     7  H    0.003028   0.001205   0.025468   0.000759  -0.023875  -0.018417
     8  H    0.000709   0.001580   0.012940   0.000067  -0.013341  -0.008841
     9  H   -0.001682   0.000691   0.000162   0.000251   0.000676  -0.000387
    10  H    0.000647  -0.000207  -0.000103  -0.000176  -0.000465   0.000560
    11  H    0.000250  -0.000112  -0.000248  -0.000050   0.000190  -0.000032
    12  H    0.000394  -0.000032   0.006170   0.000236  -0.003152  -0.003928
    13  H    0.000685   0.000230   0.004947   0.000123  -0.002450  -0.004290
               7          8          9         10         11         12
     1  O    0.003028   0.000709  -0.001682   0.000647   0.000250   0.000394
     2  O    0.001205   0.001580   0.000691  -0.000207  -0.000112  -0.000032
     3  C    0.025468   0.012940   0.000162  -0.000103  -0.000248   0.006170
     4  C    0.000759   0.000067   0.000251  -0.000176  -0.000050   0.000236
     5  C   -0.023875  -0.013341   0.000676  -0.000465   0.000190  -0.003152
     6  C   -0.018417  -0.008841  -0.000387   0.000560  -0.000032  -0.003928
     7  H    0.024932   0.003176  -0.000024   0.000006  -0.000001  -0.000036
     8  H    0.003176   0.012639  -0.000008   0.000002  -0.000001   0.000791
     9  H   -0.000024  -0.000008   0.000891  -0.000080  -0.000158   0.000000
    10  H    0.000006   0.000002  -0.000080   0.000075  -0.000023  -0.000004
    11  H   -0.000001  -0.000001  -0.000158  -0.000023   0.000179  -0.000000
    12  H   -0.000036   0.000791   0.000000  -0.000004  -0.000000  -0.044497
    13  H    0.001033  -0.000176   0.000002   0.000001  -0.000002   0.004773
              13
     1  O    0.000685
     2  O    0.000230
     3  C    0.004947
     4  C    0.000123
     5  C   -0.002450
     6  C   -0.004290
     7  H    0.001033
     8  H   -0.000176
     9  H    0.000002
    10  H    0.000001
    11  H   -0.000002
    12  H    0.004773
    13  H   -0.045695
 Mulliken charges and spin densities:
               1          2
     1  O   -0.145703   0.007847
     2  O   -0.378644   0.016383
     3  C   -0.382940  -0.041497
     4  C   -0.192508   0.004995
     5  C    0.288409   0.013803
     6  C   -0.317933   1.051221
     7  H    0.178079   0.017253
     8  H    0.173280   0.009538
     9  H    0.140214   0.000335
    10  H    0.141606   0.000235
    11  H    0.133449  -0.000009
    12  H    0.182220  -0.039284
    13  H    0.180472  -0.040820
 Sum of Mulliken charges =  -0.00000   1.00000
 Mulliken charges and spin densities with hydrogens summed into heavy atoms:
               1          2
     1  O   -0.145703   0.007847
     2  O   -0.378644   0.016383
     3  C   -0.031581  -0.014706
     4  C    0.222761   0.005556
     5  C    0.288409   0.013803
     6  C    0.044759   0.971117
 APT charges:
               1
     1  O   -0.027841
     2  O   -0.364134
     3  C   -0.995113
     4  C   -1.220718
     5  C    0.452269
     6  C   -0.859356
     7  H    0.381152
     8  H    0.471834
     9  H    0.408031
    10  H    0.345832
    11  H    0.523053
    12  H    0.501829
    13  H    0.383162
 Sum of APT charges =  -0.00000
 APT charges with hydrogens summed into heavy atoms:
               1
     1  O   -0.027841
     2  O   -0.364134
     3  C   -0.142128
     4  C    0.056198
     5  C    0.452269
     6  C    0.025635
 Electronic spatial extent (au):  <R**2>=            619.3757
 Charge=             -0.0000 electrons
 Dipole moment (field-independent basis, Debye):
    X=              0.1258    Y=             -1.7346    Z=              0.4644  Tot=              1.8001
 Quadrupole moment (field-independent basis, Debye-Ang):
   XX=            -31.8836   YY=            -40.6269   ZZ=            -35.6665
   XY=             -2.5255   XZ=             -0.0192   YZ=              1.7365
 Traceless Quadrupole moment (field-independent basis, Debye-Ang):
   XX=              4.1754   YY=             -4.5679   ZZ=              0.3925
   XY=             -2.5255   XZ=             -0.0192   YZ=              1.7365
 Octapole moment (field-independent basis, Debye-Ang**2):
  XXX=             21.7851  YYY=             -7.1656  ZZZ=              0.7466  XYY=              0.2151
  XXY=              0.3920  XXZ=             -2.0420  XZZ=              0.8797  YZZ=              1.0647
  YYZ=              2.0651  XYZ=              0.7951
 Hexadecapole moment (field-independent basis, Debye-Ang**3):
 XXXX=           -558.1453 YYYY=           -189.9960 ZZZZ=            -84.3500 XXXY=            -20.6266
 XXXZ=              7.0165 YYYX=             -7.3736 YYYZ=              1.8073 ZZZX=             -1.6563
 ZZZY=             -3.3648 XXYY=           -117.8033 XXZZ=           -101.4322 YYZZ=            -46.8027
 XXYZ=              0.9209 YYXZ=              0.9092 ZZXY=             -0.1875
 N-N= 2.380263240781D+02 E-N=-1.194353817378D+03  KE= 3.059327030189D+02
  Exact polarizability:   0.000   0.000   0.000   0.000   0.000   0.000
 Approx polarizability:  62.930   1.661  66.676  -0.260  -2.900  55.494
                          Isotropic Fermi Contact Couplings
        Atom                 a.u.       MegaHertz       Gauss      10(-4) cm-1
     1  O(17)              0.00079      -0.47639      -0.16999      -0.15891
     2  O(17)              0.00295      -1.78635      -0.63742      -0.59586
     3  C(13)             -0.03399     -38.20928     -13.63402     -12.74524
     4  C(13)              0.00024       0.27532       0.09824       0.09184
     5  C(13)              0.08335      93.69807      33.43380      31.25431
     6  C(13)              0.17741     199.44201      71.16587      66.52670
     7  H(1)               0.01041      46.51042      16.59607      15.51421
     8  H(1)               0.00488      21.83251       7.79038       7.28254
     9  H(1)               0.00005       0.23638       0.08435       0.07885
    10  H(1)               0.00008       0.36370       0.12978       0.12132
    11  H(1)               0.00003       0.11555       0.04123       0.03854
    12  H(1)              -0.01563     -69.88301     -24.93600     -23.31046
    13  H(1)              -0.01569     -70.11254     -25.01790     -23.38703
 --------------------------------------------------------
       Center         ----  Spin Dipole Couplings  ----
                      3XX-RR        3YY-RR        3ZZ-RR
 --------------------------------------------------------
     1   Atom       -0.011527      0.010564      0.000962
     2   Atom       -0.007371     -0.022090      0.029461
     3   Atom        0.005479     -0.007154      0.001674
     4   Atom        0.005130     -0.002684     -0.002446
     5   Atom        0.056171     -0.036120     -0.020051
     6   Atom        0.612950     -0.535241     -0.077710
     7   Atom       -0.004643     -0.008434      0.013077
     8   Atom       -0.008439      0.010045     -0.001605
     9   Atom        0.002760     -0.001355     -0.001406
    10   Atom        0.003527     -0.001902     -0.001625
    11   Atom        0.002617     -0.001170     -0.001448
    12   Atom        0.008416     -0.044551      0.036135
    13   Atom       -0.020193      0.073421     -0.053228
 --------------------------------------------------------
                        XY            XZ            YZ
 --------------------------------------------------------
     1   Atom       -0.000073     -0.000407      0.034596
     2   Atom       -0.013477     -0.080282      0.022744
     3   Atom        0.007949     -0.002652      0.005715
     4   Atom       -0.000198     -0.000539      0.000083
     5   Atom        0.022138     -0.037971     -0.006520
     6   Atom        0.097811     -0.736853     -0.066210
     7   Atom        0.001431      0.009893      0.004827
     8   Atom        0.004592      0.001659      0.011273
     9   Atom        0.000681      0.000821      0.000094
    10   Atom        0.000250     -0.001120     -0.000005
    11   Atom       -0.001007      0.000400     -0.000112
    12   Atom       -0.025334      0.022730     -0.052553
    13   Atom       -0.017751     -0.030462     -0.002060
 --------------------------------------------------------


 ---------------------------------------------------------------------------------
              Anisotropic Spin Dipole Couplings in Principal Axis System
 ---------------------------------------------------------------------------------

       Atom             a.u.   MegaHertz   Gauss  10(-4) cm-1        Axes

              Baa    -0.0292     2.111     0.753     0.704  0.0147 -0.6566  0.7541
     1 O(17)  Bbb    -0.0115     0.834     0.298     0.278  0.9999  0.0143 -0.0070
              Bcc     0.0407    -2.945    -1.051    -0.982 -0.0062  0.7541  0.6567
 
              Baa    -0.0716     5.182     1.849     1.728  0.7717 -0.0797  0.6309
     2 O(17)  Bbb    -0.0275     1.987     0.709     0.663  0.1945  0.9741 -0.1148
              Bcc     0.0991    -7.169    -2.558    -2.391 -0.6055  0.2114  0.7673
 
              Baa    -0.0136    -1.824    -0.651    -0.608 -0.4004  0.8332 -0.3815
     3 C(13)  Bbb     0.0043     0.573     0.205     0.191 -0.1816  0.3359  0.9242
              Bcc     0.0093     1.250     0.446     0.417  0.8982  0.4393  0.0168
 
              Baa    -0.0027    -0.364    -0.130    -0.121  0.0041  0.9561 -0.2929
     4 C(13)  Bbb    -0.0025    -0.331    -0.118    -0.110  0.0753  0.2918  0.9535
              Bcc     0.0052     0.694     0.248     0.232  0.9972 -0.0259 -0.0708
 
              Baa    -0.0417    -5.601    -1.999    -1.868 -0.3109  0.9112 -0.2704
     5 C(13)  Bbb    -0.0348    -4.670    -1.666    -1.558  0.2833  0.3604  0.8888
              Bcc     0.0765    10.270     3.665     3.426  0.9073  0.1997 -0.3701
 
              Baa    -0.5486   -73.612   -26.267   -24.554  0.4010  0.5799  0.7091
     6 C(13)  Bbb    -0.5414   -72.650   -25.923   -24.233 -0.3618  0.8114 -0.4590
              Bcc     1.0900   146.262    52.190    48.788  0.8416  0.0725 -0.5352
 
              Baa    -0.0099    -5.272    -1.881    -1.759  0.5118  0.7693 -0.3823
     7 H(1)   Bbb    -0.0085    -4.559    -1.627    -1.521  0.7618 -0.6121 -0.2119
              Bcc     0.0184     9.831     3.508     3.279  0.3971  0.1828  0.8994
 
              Baa    -0.0099    -5.301    -1.892    -1.768  0.8246 -0.4097  0.3901
     8 H(1)   Bbb    -0.0078    -4.187    -1.494    -1.397 -0.5364 -0.3471  0.7693
              Bcc     0.0178     9.488     3.386     3.165  0.1798  0.8436  0.5059
 
              Baa    -0.0016    -0.839    -0.299    -0.280 -0.2224  0.2938  0.9296
     9 H(1)   Bbb    -0.0015    -0.775    -0.276    -0.258 -0.0902  0.9432 -0.3197
              Bcc     0.0030     1.614     0.576     0.538  0.9708  0.1550  0.1833
 
              Baa    -0.0019    -1.034    -0.369    -0.345 -0.1373  0.8683 -0.4766
    10 H(1)   Bbb    -0.0018    -0.978    -0.349    -0.326  0.1558  0.4941  0.8553
              Bcc     0.0038     2.012     0.718     0.671  0.9782  0.0432 -0.2031
 
              Baa    -0.0015    -0.795    -0.284    -0.265 -0.0498  0.1867  0.9812
    11 H(1)   Bbb    -0.0014    -0.757    -0.270    -0.253  0.2543  0.9524 -0.1683
              Bcc     0.0029     1.552     0.554     0.518  0.9658 -0.2412  0.0949
 
              Baa    -0.0726   -38.757   -13.830   -12.928  0.1694  0.9008  0.3998
    12 H(1)   Bbb    -0.0042    -2.252    -0.803    -0.751  0.8895  0.0349 -0.4556
              Bcc     0.0769    41.009    14.633    13.679  0.4243 -0.4328  0.7954
 
              Baa    -0.0722   -38.516   -13.743   -12.847  0.5232  0.0758  0.8488
    13 H(1)   Bbb    -0.0046    -2.447    -0.873    -0.816  0.8311  0.1752 -0.5279
              Bcc     0.0768    40.962    14.616    13.664 -0.1887  0.9816  0.0287
 

 ---------------------------------------------------------------------------------

 No NMR shielding tensors so no spin-rotation constants.
 Leave Link  601 at Tue Mar 12 01:39:35 2019, MaxMem=   671088640 cpu:               8.6 elap:               0.5
 (Enter /shared/centos7/gaussian/g16/l701.exe)
 ... and contract with generalized density number  0.
 Compute integral second derivatives.
 Leave Link  701 at Tue Mar 12 01:39:36 2019, MaxMem=   671088640 cpu:               6.9 elap:               0.4
 (Enter /shared/centos7/gaussian/g16/l702.exe)
 L702 exits ... SP integral derivatives will be done elsewhere.
 Leave Link  702 at Tue Mar 12 01:39:36 2019, MaxMem=   671088640 cpu:               0.3 elap:               0.0
 (Enter /shared/centos7/gaussian/g16/l703.exe)
 Integral derivatives from FoFJK, PRISM(SPDF).
 Compute integral second derivatives, UseDBF=F ICtDFT=           0.
 Calling FoFJK, ICntrl=    100147 FMM=F ISym2X=0 I1Cent= 0 IOpClX= 1 NMat=1 NMatS=1 NMatT=0.
 FoFJK:  IHMeth= 1 ICntrl=  100147 DoSepK=F KAlg= 0 I1Cent=           0 FoldK=F
 IRaf=         0 NMat=       1 IRICut=       1 DoRegI=T DoRafI=F ISym2E= 0 IDoP0=0 IntGTp=1.
 FoFCou: FMM=F IPFlag=           0 FMFlag=      100000 FMFlg1=         800
         NFxFlg=           0 DoJE=F BraDBF=F KetDBF=F FulRan=T
         wScrn=  0.000000 ICntrl=    100147 IOpCl=  1 I1Cent=           0 NGrid=           0
         NMat0=    1 NMatS0=      1 NMatT0=    0 NMatD0=    1 NMtDS0=    0 NMtDT0=    0
 Symmetry not used in FoFCou.
 Leave Link  703 at Tue Mar 12 01:41:03 2019, MaxMem=   671088640 cpu:            1746.2 elap:              87.3
 (Enter /shared/centos7/gaussian/g16/l716.exe)
 Dipole        = 4.94982825D-02-6.82435786D-01 1.82704168D-01
 Polarizability= 0.00000000D+00 0.00000000D+00 0.00000000D+00
                 0.00000000D+00 0.00000000D+00 0.00000000D+00
 ***** Axes restored to original set *****
 -------------------------------------------------------------------
 Center     Atomic                   Forces (Hartrees/Bohr)
 Number     Number              X              Y              Z
 -------------------------------------------------------------------
      1        8          -0.000000049    0.000000066    0.000000267
      2        8           0.000000271   -0.000000349   -0.000001372
      3        6           0.000000141    0.000000765   -0.000000142
      4        6          -0.000000109   -0.000000529   -0.000000031
      5        6           0.000000224    0.000000159   -0.000000518
      6        6          -0.000000177    0.000000046    0.000000670
      7        1           0.000000168    0.000001466    0.000000329
      8        1           0.000000348    0.000000914   -0.000000804
      9        1           0.000000148   -0.000000179   -0.000000699
     10        1          -0.000000168   -0.000001387   -0.000000208
     11        1          -0.000000253   -0.000000479    0.000000682
     12        1          -0.000000174   -0.000000504    0.000000356
     13        1          -0.000000371    0.000000012    0.000001470
 -------------------------------------------------------------------
 Cartesian Forces:  Max     0.000001470 RMS     0.000000595
 Force constants in Cartesian coordinates: 
                1             2             3             4             5 
      1  0.486851D+00
      2 -0.970981D-01  0.389536D+00
      3 -0.765906D-01 -0.728696D-01  0.124408D+00
      4  0.294633D-01  0.211127D-01 -0.599620D-02  0.193481D+00
      5  0.261721D-01 -0.106769D+00  0.362543D-01  0.221608D+00  0.701098D+00
      6 -0.733827D-02  0.372053D-01  0.207897D-01 -0.110017D+00 -0.264978D+00
      7 -0.372229D-01  0.785126D-02  0.883073D-02 -0.135135D-01 -0.156581D-01
      8  0.344506D-01  0.182934D-02 -0.649089D-02 -0.377253D-01 -0.148970D-01
      9 -0.101134D-03  0.271071D-02  0.891792D-02  0.202422D-01  0.123785D-01
     10 -0.203311D+00 -0.106817D-01  0.401666D-01 -0.915101D-03 -0.181449D-01
     11 -0.365904D-01 -0.912135D-01  0.175147D-01  0.281461D-02 -0.202869D-02
     12  0.490899D-01  0.103194D-01 -0.841532D-01 -0.242468D-02  0.364876D-02
     13 -0.182936D+00  0.711945D-01  0.828351D-02 -0.209082D+00 -0.217037D+00
     14  0.811346D-01 -0.202273D+00  0.212253D-01 -0.205420D+00 -0.581713D+00
     15  0.236927D-02  0.238750D-01 -0.775127D-01  0.958317D-01  0.212461D+00
     16 -0.208545D-03  0.177237D-03  0.839104D-04  0.107754D-02  0.601252D-03
     17  0.391153D-02 -0.119391D-02 -0.810207D-03  0.114500D-02  0.216005D-02
     18  0.245160D-02 -0.152136D-02  0.654944D-03  0.382090D-02  0.258995D-02
     19 -0.115065D-03  0.577240D-03 -0.213766D-02 -0.722430D-02 -0.281415D-02
     20  0.154247D-02  0.114843D-03 -0.706808D-03 -0.296299D-02  0.525216D-03
     21 -0.866261D-03 -0.677789D-03  0.122399D-02  0.190428D-02 -0.326657D-03
     22 -0.813105D-02 -0.980578D-03  0.257436D-02  0.344661D-02 -0.128505D-02
     23 -0.115706D-02  0.610972D-03 -0.481693D-04 -0.995625D-03  0.127974D-02
     24  0.136939D-02  0.333444D-03  0.454217D-03 -0.899295D-03  0.210781D-03
     25 -0.350823D-01 -0.218702D-01 -0.135876D-01  0.135827D-02  0.331195D-02
     26 -0.515126D-02  0.136303D-02  0.336333D-02  0.245321D-03  0.107169D-03
     27  0.893938D-02  0.112591D-01  0.948768D-02  0.137136D-02  0.478613D-04
     28 -0.181804D-01 -0.605064D-02  0.408395D-01  0.493730D-03  0.281947D-02
     29 -0.297331D-02 -0.637716D-03  0.305929D-02 -0.825538D-03 -0.457319D-03
     30  0.119251D-01  0.613732D-03 -0.560985D-02 -0.157655D-02 -0.158029D-02
     31 -0.304068D-01  0.351330D-01 -0.280330D-02  0.220529D-02  0.811159D-03
     32 -0.343710D-02  0.718774D-02 -0.122860D-02  0.172814D-02  0.718001D-03
     33  0.942975D-02 -0.118805D-01  0.126484D-02 -0.979096D-03 -0.258267D-03
     34 -0.435882D-03  0.180416D-03  0.340590D-03 -0.416463D-03 -0.471401D-03
     35 -0.414511D-03  0.570756D-03  0.391090D-03 -0.217160D-03 -0.408283D-03
     36 -0.390312D-03  0.572440D-04  0.168970D-03 -0.466834D-03 -0.516248D-03
     37 -0.284962D-03  0.454828D-03 -0.373085D-05 -0.374424D-03  0.859560D-04
     38 -0.389426D-03  0.874972D-03  0.346281D-03 -0.507907D-03  0.385415D-03
     39 -0.287792D-03  0.575227D-03 -0.944880D-04 -0.810584D-03  0.675480D-04
                6             7             8             9            10 
      6  0.142831D+00
      7  0.135218D-01  0.429417D+00
      8  0.186799D-01 -0.727913D-01  0.595835D+00
      9  0.153081D-01  0.943319D-02 -0.336936D-01  0.522069D+00
     10  0.396703D-02  0.364375D-02  0.267162D-02  0.395483D-03  0.487207D+00
     11 -0.216200D-02  0.249528D-02 -0.338996D-02  0.178644D-02 -0.276806D-01
     12 -0.672410D-02 -0.423507D-03  0.241362D-02  0.398187D-02  0.387469D-01
     13  0.101390D+00 -0.159360D+00 -0.175947D-02  0.398325D-01 -0.515484D-01
     14  0.209553D+00 -0.912591D-02 -0.710525D-01  0.442007D-02  0.335630D-01
     15 -0.172882D+00  0.209961D-01 -0.205882D-03 -0.906709D-01  0.402830D-02
     16  0.338911D-02 -0.799528D-01 -0.346802D-01 -0.722145D-01  0.781343D-03
     17  0.111780D-02 -0.291179D-01 -0.133806D+00 -0.639272D-01 -0.474323D-03
     18 -0.223491D-02 -0.629764D-01 -0.611326D-01 -0.142802D+00 -0.613573D-03
     19 -0.138247D-02 -0.431503D-01  0.845099D-02 -0.117391D-03 -0.614136D-04
     20 -0.303646D-05  0.650800D-02 -0.108180D+00  0.110431D+00 -0.391961D-03
     21  0.724449D-04  0.158741D-02  0.110500D+00 -0.252700D+00  0.528226D-03
     22 -0.171176D-02 -0.996989D-01  0.108315D+00  0.121549D-01  0.117858D-04
     23 -0.154834D-03  0.115442D+00 -0.265275D+00 -0.199060D-01 -0.489234D-03
     24 -0.774914D-04  0.112337D-01 -0.176910D-01 -0.547585D-01  0.260270D-03
     25 -0.138905D-02 -0.414422D-04  0.543450D-03  0.608152D-03 -0.959962D-01
     26  0.220064D-03 -0.215663D-03 -0.833585D-04 -0.522680D-03 -0.848434D-01
     27 -0.307533D-03 -0.250156D-04  0.123189D-04 -0.427946D-03 -0.664064D-01
     28 -0.955937D-03 -0.632317D-03 -0.298575D-03 -0.865221D-03 -0.492290D-01
     29  0.271030D-03 -0.928409D-05  0.208321D-04  0.380916D-03 -0.619521D-03
     30  0.112125D-02  0.387480D-04 -0.274038D-03 -0.201081D-03  0.260035D-02
     31 -0.664501D-03 -0.769678D-03  0.141711D-02 -0.172504D-03 -0.903382D-01
     32 -0.478371D-03 -0.918857D-04  0.224234D-03  0.701639D-05  0.107284D+00
     33  0.104496D-02  0.274119D-03 -0.385521D-03  0.231005D-03 -0.237664D-01
     34  0.786700D-03 -0.284505D-02  0.724240D-02 -0.990376D-02  0.276477D-04
     35  0.601078D-03 -0.963036D-02  0.930162D-02 -0.151502D-01  0.737676D-05
     36  0.404062D-03 -0.610387D-02  0.762012D-02 -0.100502D-01  0.134957D-03
     37  0.404618D-03  0.412563D-02 -0.158360D-01  0.708031D-03 -0.272158D-03
     38  0.128181D-03  0.434408D-02 -0.105274D-01  0.108552D-02 -0.200497D-03
     39  0.654226D-03  0.361301D-02 -0.193524D-01  0.110263D-02 -0.416974D-04
               11            12            13            14            15 
     11  0.629579D+00
     12 -0.384389D-02  0.584630D+00
     13  0.392042D-01  0.185885D-02  0.635004D+00
     14  0.395468D-02 -0.961016D-02  0.125156D+00  0.862991D+00
     15 -0.107707D-01  0.438882D-02 -0.141901D+00 -0.228500D+00  0.346780D+00
     16 -0.137923D-04  0.935506D-03 -0.224197D-01 -0.180951D-01 -0.212055D-01
     17  0.557795D-04  0.595218D-03 -0.182393D-01 -0.875048D-02 -0.258626D-02
     18 -0.650960D-04  0.120862D-03 -0.161659D-01 -0.144510D-02  0.394087D-02
     19 -0.280009D-03 -0.357559D-03  0.273564D-02 -0.162166D-01  0.318644D-01
     20  0.304724D-04 -0.384397D-03  0.140545D-03 -0.564248D-02  0.646381D-02
     21 -0.374987D-04  0.339384D-03 -0.704745D-03  0.735042D-02 -0.945610D-02
     22  0.104337D-02 -0.540408D-03 -0.156523D-01  0.321938D-01  0.190828D-02
     23  0.246077D-03 -0.765586D-04 -0.322262D-02  0.266180D-02  0.197407D-02
     24 -0.223108D-03  0.574865D-03  0.438625D-02 -0.851012D-02 -0.187647D-02
     25 -0.772520D-01 -0.603067D-01  0.203157D-02 -0.956294D-02  0.116962D-02
     26 -0.191753D+00 -0.108132D+00  0.205376D-02  0.301078D-03  0.363403D-03
     27 -0.108524D+00 -0.134836D+00 -0.549509D-03 -0.828681D-03  0.111406D-02
     28  0.161323D-02 -0.668280D-02  0.260947D-02 -0.717871D-02  0.337421D-02
     29 -0.664768D-01  0.629658D-01  0.142208D-02  0.168062D-02 -0.176315D-02
     30  0.607161D-01 -0.307102D+00 -0.152469D-02  0.507121D-02 -0.674742D-03
     31  0.946113D-01 -0.197380D-01 -0.434067D-02 -0.629013D-02  0.315596D-02
     32 -0.279172D+00  0.419977D-01 -0.238076D-02 -0.785792D-03  0.907410D-03
     33  0.455063D-01 -0.612713D-01  0.202825D-02  0.202989D-02 -0.971499D-03
     34 -0.519218D-04 -0.193308D-03  0.126570D-02  0.230147D-03 -0.102788D-02
     35  0.495293D-04  0.660789D-04  0.162058D-02  0.354622D-04 -0.175446D-02
     36  0.221279D-04  0.783826D-05  0.137389D-02  0.806989D-03 -0.157236D-02
     37  0.867837D-04  0.358190D-04  0.169220D-02 -0.388726D-03 -0.563258D-03
     38  0.117736D-03  0.406223D-04  0.184686D-02 -0.140686D-02 -0.465113D-03
     39  0.804337D-04  0.428586D-04  0.169283D-02 -0.156280D-02 -0.607228D-03
               16            17            18            19            20 
     16  0.210041D+00
     17 -0.631691D-01  0.609004D+00
     18  0.234858D+00 -0.174448D-01  0.428150D+00
     19 -0.325533D-02  0.714710D-02 -0.172515D-01  0.510266D-01
     20 -0.271995D-02  0.106277D-01 -0.173044D-01  0.303143D-03  0.113158D+00
     21 -0.585755D-02  0.818888D-02 -0.202136D-01  0.418130D-02 -0.120437D+00
     22  0.692246D-02 -0.179182D-01 -0.110020D-02 -0.208855D-03 -0.192155D-02
     23  0.483758D-02 -0.175349D-01 -0.225641D-02  0.509262D-02 -0.100638D-01
     24  0.873129D-02 -0.214359D-01 -0.656204D-03 -0.136856D-01  0.236548D-01
     25  0.543578D-04  0.173515D-03  0.787854D-04 -0.750141D-05 -0.374858D-04
     26 -0.603387D-04 -0.405030D-04  0.436638D-04  0.813729D-04  0.724674D-05
     27 -0.750588D-04 -0.482777D-04 -0.558011D-04  0.848355D-04  0.682680D-04
     28 -0.720646D-04  0.112449D-03  0.446799D-04  0.175744D-03  0.156496D-03
     29  0.128437D-03  0.415615D-04  0.152874D-04 -0.576983D-04 -0.528492D-04
     30  0.140466D-04 -0.480095D-04 -0.153193D-04 -0.495492D-04 -0.283208D-04
     31  0.932778D-04  0.152245D-03  0.119063D-03  0.543088D-04  0.200489D-04
     32  0.570545D-04  0.199441D-04 -0.408647D-04  0.393433D-04  0.159239D-04
     33 -0.526018D-05 -0.249789D-04 -0.212250D-04 -0.413029D-04 -0.201875D-05
     34 -0.821561D-01  0.598826D-01 -0.122567D+00 -0.441604D-03 -0.167162D-02
     35  0.639987D-01 -0.113687D+00  0.101289D+00 -0.218354D-02 -0.138282D-02
     36 -0.128471D+00  0.100690D+00 -0.223675D+00 -0.220002D-02 -0.202058D-02
     37 -0.309050D-01  0.563944D-01 -0.206982D-01  0.472128D-03  0.103485D-02
     38  0.489383D-01 -0.346896D+00 -0.272670D-02 -0.139830D-03  0.841895D-03
     39 -0.201823D-01 -0.426598D-02 -0.431925D-01  0.109249D-02  0.269337D-03
               21            22            23            24            25 
     21  0.275874D+00
     22 -0.906828D-03  0.114681D+00
     23 -0.185365D-02 -0.118262D+00  0.286694D+00
     24  0.532378D-02 -0.104861D-01  0.247738D-01  0.525922D-01
     25 -0.341466D-04 -0.227664D-03  0.505160D-04  0.831020D-04  0.117102D+00
[...]
  Beta virt. eigenvalues --    1.17723   1.18951   1.21140   1.21930   1.23019
  Beta virt. eigenvalues --    1.23427   1.25211   1.28844   1.30317   1.33949
  Beta virt. eigenvalues --    1.35760   1.35966   1.37966   1.39494   1.40986
  Beta virt. eigenvalues --    1.42958   1.44522   1.45150   1.47348   1.48580
  Beta virt. eigenvalues --    1.50476   1.54084   1.55919   1.59248   1.61225
  Beta virt. eigenvalues --    1.64336   1.69686   1.71406   1.71939   1.73727
  Beta virt. eigenvalues --    1.81236   1.84028   1.93389   2.05554   2.10142
  Beta virt. eigenvalues --    2.16603   2.29420   2.32660   2.40235   2.45661
  Beta virt. eigenvalues --    2.48430   2.50999   2.54995   2.60794   2.63928
  Beta virt. eigenvalues --    2.68804   2.72730   2.74286   2.78218   2.83699
  Beta virt. eigenvalues --    2.85942   2.90465   2.94403   2.96057   2.97801
  Beta virt. eigenvalues --    2.97992   3.01701   3.03367   3.04270   3.06256
  Beta virt. eigenvalues --    3.08244   3.10285   3.12401   3.13478   3.15196
  Beta virt. eigenvalues --    3.16039   3.21837   3.22007   3.25600   3.27856
  Beta virt. eigenvalues --    3.28489   3.30473   3.34152   3.35788   3.36575
  Beta virt. eigenvalues --    3.41309   3.42461   3.43656   3.48698   3.48838
  Beta virt. eigenvalues --    3.51553   3.54484   3.55497   3.60166   3.63051
  Beta virt. eigenvalues --    3.64750   3.67089   3.70608   3.73879   3.75670
  Beta virt. eigenvalues --    3.79730   3.85578   3.86716   3.87634   3.88219
  Beta virt. eigenvalues --    3.93366   3.99441   4.01893   4.03002   4.07605
  Beta virt. eigenvalues --    4.09624   4.13209   4.13918   4.18617   4.20676
  Beta virt. eigenvalues --    4.21223   4.22555   4.26836   4.30270   4.31494
  Beta virt. eigenvalues --    4.35183   4.35969   4.38576   4.42833   4.43970
  Beta virt. eigenvalues --    4.47889   4.52241   4.59914   4.65651   4.91971
  Beta virt. eigenvalues --    4.95653   5.00765   5.08292   5.11463   5.16388
  Beta virt. eigenvalues --    5.22029   5.22905   5.25568   5.27005   5.37232
  Beta virt. eigenvalues --    5.45455   5.49639   5.51921   5.54113   5.55657
  Beta virt. eigenvalues --    5.56598   5.60266   5.61540   5.68476   5.74467
  Beta virt. eigenvalues --    5.78541   6.00480   6.08262   6.39921   6.46123
  Beta virt. eigenvalues --    6.67686   6.83381   6.95250   7.05036   7.11532
  Beta virt. eigenvalues --    7.15588   7.19635   7.25072   7.31858   7.52930
  Beta virt. eigenvalues --    7.66681   7.76803   7.82788  24.22501  24.43546
  Beta virt. eigenvalues --   24.48081  24.84600  50.17777  50.31198
          Condensed to atoms (all electrons):
               1          2          3          4          5          6
     1  O    8.213916  -0.096885  -0.119744   0.140514   0.157404  -0.026383
     2  O   -0.096885   8.159321   0.013438  -0.043070   0.377946  -0.026693
     3  C   -0.119744   0.013438   5.641950  -0.085919  -0.092178   0.132596
     4  C    0.140514  -0.043070  -0.085919   4.972381  -0.079754   0.003857
     5  C    0.157404   0.377946  -0.092178  -0.079754   5.625567  -0.119221
     6  C   -0.026383  -0.026693   0.132596   0.003857  -0.119221   5.600192
     7  H   -0.001743   0.004159   0.454560   0.003505  -0.072732  -0.045763
     8  H    0.007503  -0.005542   0.476362  -0.000923  -0.082682  -0.021661
     9  H   -0.035846  -0.003855  -0.002874   0.431228   0.004274  -0.001169
    10  H   -0.034535  -0.004291  -0.001810   0.427678   0.001265   0.001871
    11  H   -0.056851   0.003713   0.005332   0.423844   0.008893  -0.000000
    12  H    0.000159   0.000143  -0.025183   0.000427  -0.008439   0.414262
    13  H   -0.001828   0.000265  -0.013550  -0.001260  -0.008776   0.406027
               7          8          9         10         11         12
     1  O   -0.001743   0.007503  -0.035846  -0.034535  -0.056851   0.000159
     2  O    0.004159  -0.005542  -0.003855  -0.004291   0.003713   0.000143
     3  C    0.454560   0.476362  -0.002874  -0.001810   0.005332  -0.025183
     4  C    0.003505  -0.000923   0.431228   0.427678   0.423844   0.000427
     5  C   -0.072732  -0.082682   0.004274   0.001265   0.008893  -0.008439
     6  C   -0.045763  -0.021661  -0.001169   0.001871  -0.000000   0.414262
     7  H    0.505972  -0.023663   0.000021  -0.000058  -0.000011   0.003209
     8  H   -0.023663   0.480263   0.000012   0.000020   0.000007  -0.005773
     9  H    0.000021   0.000012   0.530075  -0.036804  -0.025251   0.000004
    10  H   -0.000058   0.000020  -0.036804   0.530281  -0.025276  -0.000007
    11  H   -0.000011   0.000007  -0.025251  -0.025276   0.532154  -0.000002
    12  H    0.003209  -0.005773   0.000004  -0.000007  -0.000002   0.463304
    13  H   -0.005535   0.002797  -0.000010   0.000059  -0.000001  -0.024324
              13
     1  O   -0.001828
     2  O    0.000265
     3  C   -0.013550
     4  C   -0.001260
     5  C   -0.008776
     6  C    0.406027
     7  H   -0.005535
     8  H    0.002797
     9  H   -0.000010
    10  H    0.000059
    11  H   -0.000001
    12  H   -0.024324
    13  H    0.465670
          Atomic-Atomic Spin Densities.
               1          2          3          4          5          6
     1  O    0.006151  -0.000841   0.010101   0.001217  -0.013575   0.000771
     2  O   -0.000841   0.023868   0.007230  -0.000672  -0.022257   0.005691
     3  C    0.010101   0.007230   0.002350  -0.000010  -0.066562  -0.043933
     4  C    0.001217  -0.000672  -0.000010   0.000327   0.001055   0.001858
     5  C   -0.013575  -0.022257  -0.066562   0.001055   0.208995  -0.051422
     6  C    0.000771   0.005691  -0.043933   0.001858  -0.051422   1.173587
     7  H    0.003028   0.001205   0.025438   0.000760  -0.023854  -0.018404
     8  H    0.000710   0.001582   0.012946   0.000067  -0.013349  -0.008850
     9  H   -0.001683   0.000691   0.000163   0.000252   0.000675  -0.000387
    10  H    0.000649  -0.000208  -0.000104  -0.000179  -0.000462   0.000560
    11  H    0.000249  -0.000112  -0.000248  -0.000048   0.000189  -0.000032
    12  H    0.000394  -0.000032   0.006168   0.000235  -0.003152  -0.003925
    13  H    0.000685   0.000230   0.004948   0.000123  -0.002452  -0.004290
               7          8          9         10         11         12
     1  O    0.003028   0.000710  -0.001683   0.000649   0.000249   0.000394
     2  O    0.001205   0.001582   0.000691  -0.000208  -0.000112  -0.000032
     3  C    0.025438   0.012946   0.000163  -0.000104  -0.000248   0.006168
     4  C    0.000760   0.000067   0.000252  -0.000179  -0.000048   0.000235
     5  C   -0.023854  -0.013349   0.000675  -0.000462   0.000189  -0.003152
     6  C   -0.018404  -0.008850  -0.000387   0.000560  -0.000032  -0.003925
     7  H    0.024913   0.003178  -0.000025   0.000006  -0.000001  -0.000036
     8  H    0.003178   0.012651  -0.000008   0.000002  -0.000001   0.000792
     9  H   -0.000025  -0.000008   0.000894  -0.000081  -0.000159   0.000000
    10  H    0.000006   0.000002  -0.000081   0.000076  -0.000022  -0.000004
    11  H   -0.000001  -0.000001  -0.000159  -0.000022   0.000179  -0.000000
    12  H   -0.000036   0.000792   0.000000  -0.000004  -0.000000  -0.044498
    13  H    0.001033  -0.000176   0.000002   0.000001  -0.000002   0.004773
              13
     1  O    0.000685
     2  O    0.000230
     3  C    0.004948
     4  C    0.000123
     5  C   -0.002452
     6  C   -0.004290
     7  H    0.001033
     8  H   -0.000176
     9  H    0.000002
    10  H    0.000001
    11  H   -0.000002
    12  H    0.004773
    13  H   -0.045696
 Mulliken charges and spin densities:
               1          2
     1  O   -0.145680   0.007857
     2  O   -0.378648   0.016374
     3  C   -0.382979  -0.041513
     4  C   -0.192508   0.004984
     5  C    0.288433   0.013830
     6  C   -0.317915   1.051224
     7  H    0.178079   0.017241
     8  H    0.173281   0.009545
     9  H    0.140196   0.000336
    10  H    0.141605   0.000235
    11  H    0.133450  -0.000009
    12  H    0.182220  -0.039284
    13  H    0.180466  -0.040821
 Sum of Mulliken charges =  -0.00000   1.00000
 Mulliken charges and spin densities with hydrogens summed into heavy atoms:
               1          2
     1  O   -0.145680   0.007857
     2  O   -0.378648   0.016374
     3  C   -0.031620  -0.014727
     4  C    0.222743   0.005547
     5  C    0.288433   0.013830
     6  C    0.044771   0.971118
 Electronic spatial extent (au):  <R**2>=            619.3998
 Charge=             -0.0000 electrons
 Dipole moment (field-independent basis, Debye):
    X=              0.1265    Y=             -1.7347    Z=              0.4651  Tot=              1.8004
 Quadrupole moment (field-independent basis, Debye-Ang):
   XX=            -31.8829   YY=            -40.6278   ZZ=            -35.6657
   XY=             -2.5251   XZ=             -0.0182   YZ=              1.7354
 Traceless Quadrupole moment (field-independent basis, Debye-Ang):
   XX=              4.1759   YY=             -4.5690   ZZ=              0.3931
   XY=             -2.5251   XZ=             -0.0182   YZ=              1.7354
 Octapole moment (field-independent basis, Debye-Ang**2):
  XXX=             21.7898  YYY=             -7.1679  ZZZ=              0.7463  XYY=              0.2145
  XXY=              0.3901  XXZ=             -2.0413  XZZ=              0.8814  YZZ=              1.0653
  YYZ=              2.0641  XYZ=              0.7946
 Hexadecapole moment (field-independent basis, Debye-Ang**3):
 XXXX=           -558.1959 YYYY=           -189.9918 ZZZZ=            -84.3448 XXXY=            -20.6320
 XXXZ=              7.0186 YYYX=             -7.3734 YYYZ=              1.8097 ZZZX=             -1.6549
 ZZZY=             -3.3659 XXYY=           -117.8086 XXZZ=           -101.4379 YYZZ=            -46.7986
 XXYZ=              0.9224 YYXZ=              0.9072 ZZXY=             -0.1867
 N-N= 2.380242370647D+02 E-N=-1.194349640449D+03  KE= 3.059326582218D+02
                          Isotropic Fermi Contact Couplings
        Atom                 a.u.       MegaHertz       Gauss      10(-4) cm-1
     1  O(17)              0.00079      -0.47608      -0.16988      -0.15880
     2  O(17)              0.00295      -1.78536      -0.63706      -0.59553
     3  C(13)             -0.03399     -38.20849     -13.63374     -12.74498
     4  C(13)              0.00024       0.27414       0.09782       0.09144
     5  C(13)              0.08335      93.70205      33.43522      31.25564
     6  C(13)              0.17741     199.44799      71.16800      66.52869
     7  H(1)               0.01040      46.47281      16.58265      15.50166
     8  H(1)               0.00489      21.85839       7.79962       7.29117
     9  H(1)               0.00005       0.23831       0.08504       0.07949
    10  H(1)               0.00008       0.36411       0.12992       0.12145
    11  H(1)               0.00003       0.11611       0.04143       0.03873
    12  H(1)              -0.01563     -69.88160     -24.93549     -23.30999
    13  H(1)              -0.01569     -70.11124     -25.01743     -23.38659
 --------------------------------------------------------
       Center         ----  Spin Dipole Couplings  ----
                      3XX-RR        3YY-RR        3ZZ-RR
 --------------------------------------------------------
     1   Atom       -0.011541      0.010537      0.001004
     2   Atom       -0.007393     -0.022095      0.029489
     3   Atom        0.005484     -0.007158      0.001674
     4   Atom        0.005128     -0.002683     -0.002445
     5   Atom        0.056159     -0.036118     -0.020041
     6   Atom        0.612943     -0.535258     -0.077685
     7   Atom       -0.004638     -0.008438      0.013075
     8   Atom       -0.008439      0.010039     -0.001600
     9   Atom        0.002760     -0.001355     -0.001405
    10   Atom        0.003526     -0.001901     -0.001625
    11   Atom        0.002617     -0.001170     -0.001448
    12   Atom        0.008405     -0.044524      0.036119
    13   Atom       -0.020202      0.073428     -0.053226
 --------------------------------------------------------
                        XY            XZ            YZ
 --------------------------------------------------------
     1   Atom       -0.000077     -0.000408      0.034625
     2   Atom       -0.013450     -0.080277      0.022722
     3   Atom        0.007947     -0.002649      0.005715
     4   Atom       -0.000198     -0.000538      0.000083
     5   Atom        0.022149     -0.037982     -0.006528
     6   Atom        0.097703     -0.736872     -0.066143
     7   Atom        0.001429      0.009896      0.004821
     8   Atom        0.004595      0.001663      0.011276
     9   Atom        0.000681      0.000822      0.000094
    10   Atom        0.000250     -0.001120     -0.000005
    11   Atom       -0.001007      0.000400     -0.000112
    12   Atom       -0.025348      0.022717     -0.052570
    13   Atom       -0.017729     -0.030466     -0.002033
 --------------------------------------------------------


 ---------------------------------------------------------------------------------
              Anisotropic Spin Dipole Couplings in Principal Axis System
 ---------------------------------------------------------------------------------

       Atom             a.u.   MegaHertz   Gauss  10(-4) cm-1        Axes

              Baa    -0.0292     2.112     0.754     0.704  0.0146 -0.6570  0.7537
     1 O(17)  Bbb    -0.0115     0.835     0.298     0.279  0.9999  0.0143 -0.0069
              Bcc     0.0407    -2.947    -1.051    -0.983 -0.0062  0.7538  0.6571
 
              Baa    -0.0716     5.182     1.849     1.728  0.7718 -0.0798  0.6308
     2 O(17)  Bbb    -0.0275     1.986     0.709     0.663  0.1944  0.9742 -0.1146
              Bcc     0.0991    -7.168    -2.558    -2.391 -0.6054  0.2111  0.7674
 
              Baa    -0.0136    -1.824    -0.651    -0.608 -0.4001  0.8333 -0.3815
     3 C(13)  Bbb     0.0043     0.573     0.205     0.191 -0.1817  0.3358  0.9242
              Bcc     0.0093     1.251     0.446     0.417  0.8983  0.4391  0.0170
 
              Baa    -0.0027    -0.364    -0.130    -0.121  0.0040  0.9560 -0.2934
     4 C(13)  Bbb    -0.0025    -0.330    -0.118    -0.110  0.0753  0.2923  0.9534
              Bcc     0.0052     0.694     0.248     0.231  0.9972 -0.0259 -0.0708
 
              Baa    -0.0417    -5.601    -1.999    -1.868 -0.3110  0.9112 -0.2702
     5 C(13)  Bbb    -0.0348    -4.670    -1.666    -1.558  0.2834  0.3602  0.8888
              Bcc     0.0765    10.271     3.665     3.426  0.9072  0.1998 -0.3703
 
              Baa    -0.5486   -73.612   -26.267   -24.554  0.4011  0.5798  0.7092
     6 C(13)  Bbb    -0.5414   -72.650   -25.923   -24.233 -0.3616  0.8115 -0.4589
              Bcc     1.0900   146.262    52.190    48.788  0.8416  0.0724 -0.5352
 
              Baa    -0.0099    -5.272    -1.881    -1.759  0.5114  0.7697 -0.3821
     7 H(1)   Bbb    -0.0085    -4.558    -1.626    -1.520  0.7620 -0.6117 -0.2124
              Bcc     0.0184     9.830     3.508     3.279  0.3972  0.1825  0.8994
 
              Baa    -0.0099    -5.301    -1.892    -1.768  0.8247 -0.4098  0.3898
     8 H(1)   Bbb    -0.0078    -4.188    -1.494    -1.397 -0.5362 -0.3472  0.7693
              Bcc     0.0178     9.489     3.386     3.165  0.1799  0.8435  0.5061
 
              Baa    -0.0016    -0.839    -0.299    -0.280 -0.2226  0.2938  0.9296
     9 H(1)   Bbb    -0.0015    -0.775    -0.276    -0.258 -0.0901  0.9432 -0.3197
              Bcc     0.0030     1.613     0.576     0.538  0.9707  0.1550  0.1835
 
              Baa    -0.0019    -1.034    -0.369    -0.345 -0.1375  0.8681 -0.4769
    10 H(1)   Bbb    -0.0018    -0.977    -0.349    -0.326  0.1556  0.4945  0.8552
              Bcc     0.0038     2.011     0.718     0.671  0.9782  0.0434 -0.2031
 
              Baa    -0.0015    -0.794    -0.283    -0.265 -0.0496  0.1870  0.9811
    11 H(1)   Bbb    -0.0014    -0.757    -0.270    -0.253  0.2543  0.9523 -0.1687
              Bcc     0.0029     1.551     0.554     0.518  0.9658 -0.2411  0.0948
 
              Baa    -0.0726   -38.757   -13.830   -12.928  0.1696  0.9007  0.3999
    12 H(1)   Bbb    -0.0042    -2.252    -0.804    -0.751  0.8895  0.0348 -0.4556
              Bcc     0.0769    41.009    14.633    13.679  0.4243 -0.4330  0.7953
 
              Baa    -0.0722   -38.516   -13.743   -12.847  0.5232  0.0756  0.8488
    13 H(1)   Bbb    -0.0046    -2.447    -0.873    -0.816  0.8311  0.1751 -0.5279
              Bcc     0.0768    40.962    14.616    13.664 -0.1885  0.9816  0.0288
 

 ---------------------------------------------------------------------------------

 No NMR shielding tensors so no spin-rotation constants.
 Leave Link  601 at Tue Mar 12 02:59:53 2019, MaxMem=   671088640 cpu:               6.7 elap:               0.4
 (Enter /shared/centos7/gaussian/g16/l9999.exe)
 1\1\GINC-C0257\Scan\UM062X\6-311+G(2df,2p)\C4H7O2(2)\UNDERKOFFLER.C\12
 -Mar-2019\0\\#p m062x/6-311+g(2df,2p) Opt=(CalcFC,ModRedun)\\Gaussian 
 Input Prepared from Scan Object\\0,2\O,0.6928964942,-0.747268361,-0.34
 56363964\O,0.5502598641,0.7173416582,1.3400329388\C,-1.4478273288,-0.4
 219751812,0.5941390576\C,2.0822823904,-0.4444323697,-0.4513035994\C,0.
 0305714083,-0.0742639319,0.6052923078\C,-2.1140374643,0.2002562706,-0.
 5841613191\H,-1.5363587784,-1.5086652093,0.5566416422\H,-1.8653160669,
 -0.0552841926,1.5284462252\H,2.5923878374,-0.6793213358,0.4807133617\H
 ,2.2220388881,0.6115742666,-0.6737898284\H,2.4614098746,-1.0595759355,
 -1.2602465626\H,-2.5086568215,1.2015104902,-0.5158257296\H,-2.02718629
 72,-0.2562311684,-1.5572240978\\Version=EM64L-G16RevA.03\State=2-A\HF=
 -307.0034966,-307.0033391,-307.0029257,-307.0024147,-307.0019638,-307.
 0016719,-307.0015796,-307.0016959,-307.0020063,-307.0024589,-307.00295
 43,-307.0033461,-307.0034966,-307.0033413,-307.0029393,-307.0024381,-3
 07.0019869,-307.0016858,-307.001579,-307.0016805,-307.0019793,-307.002
 4289,-307.0029304,-307.0033341,-307.0034965,-307.0033535,-307.0029643,
 -307.0024703,-307.0020157,-307.0017022,-307.0015795,-307.0016661,-307.
 0019548,-307.0024046,-307.0029163,-307.0033321,-307.0034966\S2=0.75552
 8,0.755526,0.755524,0.755524,0.755523,0.755522,0.755522,0.755523,0.755
 526,0.755528,0.755529,0.755529,0.755528,0.755525,0.755524,0.755523,0.7
 55523,0.755522,0.755522,0.755523,0.755525,0.755527,0.755529,0.755529,0
 .755528,0.755526,0.755525,0.755523,0.755523,0.755522,0.755522,0.755523
 ,0.755525,0.755528,0.755529,0.755529,0.755528\S2-1=0.,0.,0.,0.,0.,0.,0
 .,0.,0.,0.,0.,0.,0.,0.,0.,0.,0.,0.,0.,0.,0.,0.,0.,0.,0.,0.,0.,0.,0.,0.
 ,0.,0.,0.,0.,0.,0.,0.\S2A=0.750024,0.750024,0.750024,0.750024,0.750024
 ,0.750024,0.750024,0.750024,0.750024,0.750024,0.750024,0.750024,0.7500
 24,0.750024,0.750024,0.750024,0.750024,0.750024,0.750024,0.750024,0.75
 0024,0.750024,0.750024,0.750024,0.750024,0.750024,0.750024,0.750024,0.
 750024,0.750024,0.750024,0.750024,0.750024,0.750024,0.750024,0.750024,
 0.750024\RMSD=5.088e-09,4.638e-09,8.069e-09,7.288e-09,8.776e-09,5.889e
 -09,3.737e-09,6.930e-09,7.840e-09,5.532e-09,4.149e-09,9.799e-09,9.407e
 -09,8.531e-09,9.982e-09,9.887e-09,8.367e-09,3.180e-09,9.900e-09,5.297e
 -09,8.473e-09,3.791e-09,2.795e-09,8.762e-09,9.935e-09,5.988e-09,6.990e
 -09,5.382e-09,3.766e-09,4.954e-09,9.078e-09,5.192e-09,8.645e-09,6.917e
 -09,3.685e-09,8.065e-09,3.979e-09\PG=C01 [X(C4H7O2)]\\@


 ADVERTISING--  HE WHO HAS SOMETHING TO SELL AND GOES AND WHISPERS
                IN A WELL, IS NOT SO APT TO GET THE DOLLARS AS HE
                WHO CLIMBS A TREE AND HOLLERS.

                   -- FROM THE BACK OF A SUGAR PACKET
 Job cpu time:       1 days  3 hours 55 minutes 52.2 seconds.
 Elapsed time:       0 days  1 hours 24 minutes 26.9 seconds.
 File lengths (MBytes):  RWF=   1392 Int=      0 D2E=      0 Chk=     32 Scr=     32
 Normal termination of Gaussian 16 at Tue Mar 12 02:59:53 2019.
