 Entering Gaussian System, Link 0=g16
 Input=NPQBOSHSVUVOHJ-UHFFFAOYSA-N_GeoFreq_c1_a1.com
 Output=NPQBOSHSVUVOHJ-UHFFFAOYSA-N_GeoFreq_c1_a1.log
 Initial command:
 /shared/centos7/gaussian/g16/l1.exe "/scratch/underkoffler.c/gaussian_scratch/Gau-18344.inp" -scrdir="/scratch/underkoffler.c/gaussian_scratch/"
 Entering Link 1 = /shared/centos7/gaussian/g16/l1.exe PID=     18345.
  
 Copyright (c) 1988,1990,1992,1993,1995,1998,2003,2009,2016,
            Gaussian, Inc.  All Rights Reserved.
  
 This is part of the Gaussian(R) 16 program.  It is based on
 the Gaussian(R) 09 system (copyright 2009, Gaussian, Inc.),
 the Gaussian(R) 03 system (copyright 2003, Gaussian, Inc.),
 the Gaussian(R) 98 system (copyright 1998, Gaussian, Inc.),
 the Gaussian(R) 94 system (copyright 1995, Gaussian, Inc.),
 the Gaussian 92(TM) system (copyright 1992, Gaussian, Inc.),
 the Gaussian 90(TM) system (copyright 1990, Gaussian, Inc.),
 the Gaussian 88(TM) system (copyright 1988, Gaussian, Inc.),
 the Gaussian 86(TM) system (copyright 1986, Carnegie Mellon
 University), and the Gaussian 82(TM) system (copyright 1983,
 Carnegie Mellon University). Gaussian is a federally registered
 trademark of Gaussian, Inc.
  
 This software contains proprietary and confidential information,
 including trade secrets, belonging to Gaussian, Inc.
  
 This software is provided under written license and may be
 used, copied, transmitted, or stored only in accord with that
 written license.
  
 The following legend is applicable only to US Government
 contracts under FAR:
  
                    RESTRICTED RIGHTS LEGEND
  
 Use, reproduction and disclosure by the US Government is
 subject to restrictions as set forth in subparagraphs (a)
 and (c) of the Commercial Computer Software - Restricted
 Rights clause in FAR 52.227-19.
  
 Gaussian, Inc.
 340 Quinnipiac St., Bldg. 40, Wallingford CT 06492
  
  
 ---------------------------------------------------------------
 Warning -- This program may not be used in any manner that
 competes with the business of Gaussian, Inc. or will provide
 assistance to any competitor of Gaussian, Inc.  The licensee
 of this program is prohibited from giving any competitor of
 Gaussian, Inc. access to this program.  By using this program,
 the user acknowledges that Gaussian, Inc. is engaged in the
 business of creating and licensing software in the field of
 computational chemistry and represents and warrants to the
 licensee that it is not a competitor of Gaussian, Inc. and that
 it will not use this program in any manner prohibited above.
 ---------------------------------------------------------------
  

 Cite this work as:
 Gaussian 16, Revision A.03,
 M. J. Frisch, G. W. Trucks, H. B. Schlegel, G. E. Scuseria, 
 M. A. Robb, J. R. Cheeseman, G. Scalmani, V. Barone, 
 G. A. Petersson, H. Nakatsuji, X. Li, M. Caricato, A. V. Marenich, 
 J. Bloino, B. G. Janesko, R. Gomperts, B. Mennucci, H. P. Hratchian, 
 J. V. Ortiz, A. F. Izmaylov, J. L. Sonnenberg, D. Williams-Young, 
 F. Ding, F. Lipparini, F. Egidi, J. Goings, B. Peng, A. Petrone, 
 T. Henderson, D. Ranasinghe, V. G. Zakrzewski, J. Gao, N. Rega, 
 G. Zheng, W. Liang, M. Hada, M. Ehara, K. Toyota, R. Fukuda, 
 J. Hasegawa, M. Ishida, T. Nakajima, Y. Honda, O. Kitao, H. Nakai, 
 T. Vreven, K. Throssell, J. A. Montgomery, Jr., J. E. Peralta, 
 F. Ogliaro, M. J. Bearpark, J. J. Heyd, E. N. Brothers, K. N. Kudin, 
 V. N. Staroverov, T. A. Keith, R. Kobayashi, J. Normand, 
 K. Raghavachari, A. P. Rendell, J. C. Burant, S. S. Iyengar, 
 J. Tomasi, M. Cossi, J. M. Millam, M. Klene, C. Adamo, R. Cammi, 
 J. W. Ochterski, R. L. Martin, K. Morokuma, O. Farkas, 
 J. B. Foresman, and D. J. Fox, Gaussian, Inc., Wallingford CT, 2016.
 
 ******************************************
 Gaussian 16:  EM64L-G16RevA.03 25-Dec-2016
                 9-Apr-2019 
 ******************************************
 %nprocshared=20
 Will use up to   20 processors via shared memory.
 %mem=5GB
 ----------------------------------------------------------------------
 #p m062x/6-311+g(2df,2p) opt=(calcfc,verytight,gdiis,maxcycles=900) fr
 eq iop(7/33=1,2/16=3)
 ----------------------------------------------------------------------

 Warning!  Use of Opt=GDIIS is deprecated since it is seldom a good choice.

 1/6=900,7=1,10=4,18=20,19=11,26=3,38=1/1,3;
 2/9=110,12=2,16=3,17=6,18=5,40=1/2;
 3/5=4,6=6,7=214,11=2,25=1,30=1,71=2,74=-55,140=1/1,2,3;
 4//1;
 5/5=2,38=5/2;
 8/6=4,10=90,11=11/1;
 11/6=1,8=1,9=11,15=111,16=1/1,2,10;
 10/6=1,13=1/2;
 6/7=2,8=2,9=2,10=2,28=1/1;
 7/10=1,18=20,25=1,33=1/1,2,3,16;
 1/6=900,7=1,10=4,18=20,19=11,26=3/3(2);
 2/9=110,16=3/2;
 99//99;
 2/9=110,16=3/2;
 3/5=4,6=6,7=214,11=2,25=1,30=1,71=1,74=-55/1,2,3;
 4/5=5,16=3,69=1/1;
 5/5=2,38=5/2;
 7/33=1/1,2,3,16;
 1/6=900,7=1,18=20,19=11,26=3/3(-5);
 2/9=110,16=3/2;
 6/7=2,8=2,9=2,10=2,19=2,28=1/1;
 99/9=1/99;
 Leave Link    1 at Tue Apr  9 01:59:47 2019, MaxMem=   671088640 cpu:              27.9 elap:               1.5
 (Enter /shared/centos7/gaussian/g16/l101.exe)
 ------------------------------
 Gaussian input prepared by ASE
 ------------------------------
 Symbolic Z-matrix:
 Charge =  0 Multiplicity = 2
 O                     1.4767    0.39306   0.89699 
 O                    -0.06233  -0.51824  -0.55676 
 C                    -0.83696   0.42377   1.56057 
 C                     2.41202   0.02058  -0.08205 
 C                     0.19111   0.05359   0.54185 
 C                    -1.11409  -0.7345    2.48132 
 H                    -1.78066   0.72615   1.04007 
 H                    -0.46302   1.29827   2.15022 
 H                     3.39014   0.42814   0.21652 
 H                     2.12323   0.43422  -1.08096 
 H                     2.48159  -1.08995  -0.15342 
 H                    -1.76838  -1.53332   2.08062 
 H                    -0.28359  -1.06847   3.12139 
 
 ITRead=  0  0  0  0  0  0  0  0  0  0  0  0  0
 MicOpt= -1 -1 -1 -1 -1 -1 -1 -1 -1 -1 -1 -1 -1
 NAtoms=     13 NQM=       13 NQMF=       0 NMMI=      0 NMMIF=      0
                NMic=       0 NMicF=      0.
                    Isotopes and Nuclear Properties:
 (Nuclear quadrupole moments (NQMom) in fm**2, nuclear magnetic moments (NMagM)
  in nuclear magnetons)

  Atom         1           2           3           4           5           6           7           8           9          10
 IAtWgt=          16          16          12          12          12          12           1           1           1           1
 AtmWgt=  15.9949146  15.9949146  12.0000000  12.0000000  12.0000000  12.0000000   1.0078250   1.0078250   1.0078250   1.0078250
 NucSpn=           0           0           0           0           0           0           1           1           1           1
 AtZEff=  -0.0000000  -0.0000000  -0.0000000  -0.0000000  -0.0000000  -0.0000000  -0.0000000  -0.0000000  -0.0000000  -0.0000000
 NQMom=    0.0000000   0.0000000   0.0000000   0.0000000   0.0000000   0.0000000   0.0000000   0.0000000   0.0000000   0.0000000
 NMagM=    0.0000000   0.0000000   0.0000000   0.0000000   0.0000000   0.0000000   2.7928460   2.7928460   2.7928460   2.7928460
 AtZNuc=   8.0000000   8.0000000   6.0000000   6.0000000   6.0000000   6.0000000   1.0000000   1.0000000   1.0000000   1.0000000

  Atom        11          12          13
 IAtWgt=           1           1           1
 AtmWgt=   1.0078250   1.0078250   1.0078250
 NucSpn=           1           1           1
 AtZEff=  -0.0000000  -0.0000000  -0.0000000
 NQMom=    0.0000000   0.0000000   0.0000000
 NMagM=    2.7928460   2.7928460   2.7928460
 AtZNuc=   1.0000000   1.0000000   1.0000000
 Leave Link  101 at Tue Apr  9 01:59:48 2019, MaxMem=   671088640 cpu:               4.9 elap:               0.3
 (Enter /shared/centos7/gaussian/g16/l103.exe)

 GradGradGradGradGradGradGradGradGradGradGradGradGradGradGradGradGradGrad
 Berny optimization.
 Initialization pass.
                           ----------------------------
                           !    Initial Parameters    !
                           ! (Angstroms and Degrees)  !
 --------------------------                            --------------------------
 ! Name  Definition              Value          Derivative Info.                !
 --------------------------------------------------------------------------------
 ! R1    R(1,4)                  1.4043         calculate D2E/DX2 analytically  !
 ! R2    R(1,5)                  1.3763         calculate D2E/DX2 analytically  !
 ! R3    R(2,5)                  1.2642         calculate D2E/DX2 analytically  !
 ! R4    R(3,5)                  1.4939         calculate D2E/DX2 analytically  !
 ! R5    R(3,6)                  1.5054         calculate D2E/DX2 analytically  !
 ! R6    R(3,7)                  1.1193         calculate D2E/DX2 analytically  !
 ! R7    R(3,8)                  1.1191         calculate D2E/DX2 analytically  !
 ! R8    R(4,9)                  1.1009         calculate D2E/DX2 analytically  !
 ! R9    R(4,10)                 1.1191         calculate D2E/DX2 analytically  !
 ! R10   R(4,11)                 1.115          calculate D2E/DX2 analytically  !
 ! R11   R(6,12)                 1.1076         calculate D2E/DX2 analytically  !
 ! R12   R(6,13)                 1.1004         calculate D2E/DX2 analytically  !
 ! A1    A(4,1,5)              112.1373         calculate D2E/DX2 analytically  !
 ! A2    A(5,3,6)              110.6783         calculate D2E/DX2 analytically  !
 ! A3    A(5,3,7)              109.2714         calculate D2E/DX2 analytically  !
 ! A4    A(5,3,8)              108.8444         calculate D2E/DX2 analytically  !
 ! A5    A(6,3,7)              109.6984         calculate D2E/DX2 analytically  !
 ! A6    A(6,3,8)              109.9076         calculate D2E/DX2 analytically  !
 ! A7    A(7,3,8)              108.3986         calculate D2E/DX2 analytically  !
 ! A8    A(1,4,9)              107.7277         calculate D2E/DX2 analytically  !
 ! A9    A(1,4,10)             110.6337         calculate D2E/DX2 analytically  !
 ! A10   A(1,4,11)             110.5092         calculate D2E/DX2 analytically  !
 ! A11   A(9,4,10)             109.544          calculate D2E/DX2 analytically  !
 ! A12   A(9,4,11)             109.3082         calculate D2E/DX2 analytically  !
 ! A13   A(10,4,11)            109.0933         calculate D2E/DX2 analytically  !
 ! A14   A(1,5,2)              121.5398         calculate D2E/DX2 analytically  !
 ! A15   A(1,5,3)              113.9382         calculate D2E/DX2 analytically  !
 ! A16   A(2,5,3)              124.522          calculate D2E/DX2 analytically  !
 ! A17   A(3,6,12)             116.2562         calculate D2E/DX2 analytically  !
 ! A18   A(3,6,13)             116.7652         calculate D2E/DX2 analytically  !
 ! A19   A(12,6,13)            115.9363         calculate D2E/DX2 analytically  !
 ! D1    D(5,1,4,9)            173.4275         calculate D2E/DX2 analytically  !
 ! D2    D(5,1,4,10)            53.7146         calculate D2E/DX2 analytically  !
 ! D3    D(5,1,4,11)           -67.2185         calculate D2E/DX2 analytically  !
 ! D4    D(4,1,5,2)             -0.4736         calculate D2E/DX2 analytically  !
 ! D5    D(4,1,5,3)            179.6087         calculate D2E/DX2 analytically  !
 ! D6    D(6,3,5,1)            -94.0665         calculate D2E/DX2 analytically  !
 ! D7    D(6,3,5,2)             86.0186         calculate D2E/DX2 analytically  !
 ! D8    D(7,3,5,1)            145.0276         calculate D2E/DX2 analytically  !
 ! D9    D(7,3,5,2)            -34.8873         calculate D2E/DX2 analytically  !
 ! D10   D(8,3,5,1)             26.8226         calculate D2E/DX2 analytically  !
 ! D11   D(8,3,5,2)           -153.0922         calculate D2E/DX2 analytically  !
 ! D12   D(5,3,6,12)           -77.9544         calculate D2E/DX2 analytically  !
 ! D13   D(5,3,6,13)            64.7018         calculate D2E/DX2 analytically  !
 ! D14   D(7,3,6,12)            42.6979         calculate D2E/DX2 analytically  !
 ! D15   D(7,3,6,13)          -174.6459         calculate D2E/DX2 analytically  !
 ! D16   D(8,3,6,12)           161.7894         calculate D2E/DX2 analytically  !
 ! D17   D(8,3,6,13)           -55.5545         calculate D2E/DX2 analytically  !
 --------------------------------------------------------------------------------
 Trust Radius=3.00D-01 FncErr=1.00D-07 GrdErr=1.00D-06 EigMax=2.50D+02 EigMin=1.00D-04
 Number of steps in this run=    100 maximum allowed number of steps=    100.
 GradGradGradGradGradGradGradGradGradGradGradGradGradGradGradGradGradGrad

 Leave Link  103 at Tue Apr  9 01:59:48 2019, MaxMem=   671088640 cpu:               0.2 elap:               0.0
 (Enter /shared/centos7/gaussian/g16/l202.exe)
                          Input orientation:                          
 ---------------------------------------------------------------------
 Center     Atomic      Atomic             Coordinates (Angstroms)
 Number     Number       Type             X           Y           Z
 ---------------------------------------------------------------------
      1          8           0        1.476701    0.393062    0.896992
      2          8           0       -0.062326   -0.518241   -0.556758
      3          6           0       -0.836959    0.423766    1.560566
      4          6           0        2.412023    0.020584   -0.082048
      5          6           0        0.191114    0.053586    0.541852
      6          6           0       -1.114088   -0.734498    2.481323
      7          1           0       -1.780658    0.726155    1.040070
      8          1           0       -0.463023    1.298273    2.150217
      9          1           0        3.390137    0.428136    0.216515
     10          1           0        2.123230    0.434221   -1.080964
     11          1           0        2.481589   -1.089951   -0.153419
     12          1           0       -1.768381   -1.533320    2.080618
     13          1           0       -0.283585   -1.068468    3.121387
 ---------------------------------------------------------------------
                    Distance matrix (angstroms):
                    1          2          3          4          5
     1  O    0.000000
     2  O    2.304878   0.000000
     3  C    2.407135   2.443459   0.000000
     4  C    1.404309   2.576448   3.662870   0.000000
     5  C    1.376264   1.264184   1.493903   2.307114   0.000000
     6  C    3.239396   3.222252   1.505380   4.424305   2.467018
     7  H    3.277470   2.655381   1.119339   4.397221   2.142067
     8  H    2.480425   3.284508   1.119053   3.857639   2.136347
     9  H    2.031136   3.662387   4.435633   1.100884   3.237265
    10  H    2.081346   2.441030   3.967431   1.119076   2.551762
    11  H    2.076654   2.638377   4.030118   1.114999   2.652801
    12  H    3.955058   3.301024   2.228943   4.956563   2.953928
    13  H    3.191021   3.725648   2.229159   4.326006   2.852778
                    6          7          8          9         10
     6  C    0.000000
     7  H    2.157552   0.000000
     8  H    2.160017   1.815463   0.000000
     9  H    5.173888   5.244443   4.398089   0.000000
    10  H    4.953385   4.452454   4.227980   1.813434   0.000000
    11  H    4.471813   4.784287   4.436338   1.807457   1.819852
    12  H    1.107601   2.487592   3.118769   5.825161   5.386228
    13  H    1.100432   3.129501   2.564533   4.916741   5.070561
                   11         12         13
    11  H    0.000000
    12  H    4.821799   0.000000
    13  H    4.286141   1.871872   0.000000
 Stoichiometry    C4H7O2(2)
 Framework group  C1[X(C4H7O2)]
 Deg. of freedom    33
 Full point group                 C1      NOp   1
 Largest Abelian subgroup         C1      NOp   1
 Largest concise Abelian subgroup C1      NOp   1
                         Standard orientation:                         
 ---------------------------------------------------------------------
 Center     Atomic      Atomic             Coordinates (Angstroms)
 Number     Number       Type             X           Y           Z
 ---------------------------------------------------------------------
      1          8           0       -0.876386   -0.753731   -0.205026
      2          8           0       -0.312081    1.453380    0.145241
      3          6           0        1.403114   -0.105918   -0.627540
      4          6           0       -2.153893   -0.346965    0.212828
      5          6           0        0.026669    0.284799   -0.198022
      6          6           0        2.255184   -0.448077    0.565387
      7          1           0        1.868056    0.740944   -1.192849
      8          1           0        1.331471   -0.989407   -1.310618
      9          1           0       -2.840154   -1.195361    0.067173
     10          1           0       -2.506252    0.527374   -0.390251
     11          1           0       -2.140600   -0.064492    1.291371
     12          1           0        2.655719    0.407832    1.143117
     13          1           0        1.953057   -1.327116    1.154421
 ---------------------------------------------------------------------
 Rotational constants (GHZ):           7.0942685           2.4329039           2.0836533
 Leave Link  202 at Tue Apr  9 01:59:48 2019, MaxMem=   671088640 cpu:               0.1 elap:               0.0
 (Enter /shared/centos7/gaussian/g16/l301.exe)
 Standard basis: 6-311+G(2df,2p) (5D, 7F)
 Ernie: Thresh=  0.10000D-02 Tol=  0.10000D-05 Strict=F.
 There are   297 symmetry adapted cartesian basis functions of A   symmetry.
 There are   267 symmetry adapted basis functions of A   symmetry.
   267 basis functions,   389 primitive gaussians,   297 cartesian basis functions
    24 alpha electrons       23 beta electrons
       nuclear repulsion energy       235.1901940716 Hartrees.
 IExCor= 4336 DFT=T Ex+Corr=M062X ExCW=0 ScaHFX=  0.540000
 ScaDFX=  1.000000  1.000000  1.000000  1.000000 ScalE2=  1.000000  1.000000
 IRadAn=      5 IRanWt=     -1 IRanGd=            0 ICorTp=0 IEmpDi=  4
 NAtoms=   13 NActive=   13 NUniq=   13 SFac= 1.00D+00 NAtFMM=   60 NAOKFM=F Big=F
 Integral buffers will be    131072 words long.
 Raffenetti 2 integral format.
 Two-electron integral symmetry is turned on.
 Leave Link  301 at Tue Apr  9 01:59:48 2019, MaxMem=   671088640 cpu:               0.8 elap:               0.1
 (Enter /shared/centos7/gaussian/g16/l302.exe)
 NPDir=0 NMtPBC=     1 NCelOv=     1 NCel=       1 NClECP=     1 NCelD=      1
         NCelK=      1 NCelE2=     1 NClLst=     1 CellRange=     0.0.
 One-electron integrals computed using PRISM.
 One-electron integral symmetry used in STVInt
 NBasis=   267 RedAO= T EigKep=  3.28D-05  NBF=   267
 NBsUse=   267 1.00D-06 EigRej= -1.00D+00 NBFU=   267
 Precomputing XC quadrature grid using
 IXCGrd= 4 IRadAn=           5 IRanWt=          -1 IRanGd=           0 AccXCQ= 0.00D+00.
 Generated NRdTot=       0 NPtTot=           0 NUsed=           0 NTot=          32
 NSgBfM=   297   297   297   297   297 MxSgAt=    13 MxSgA2=    13.
 Leave Link  302 at Tue Apr  9 01:59:48 2019, MaxMem=   671088640 cpu:               4.9 elap:               0.3
 (Enter /shared/centos7/gaussian/g16/l303.exe)
 DipDrv:  MaxL=1.
 Leave Link  303 at Tue Apr  9 01:59:48 2019, MaxMem=   671088640 cpu:               0.5 elap:               0.0
 (Enter /shared/centos7/gaussian/g16/l401.exe)
 ExpMin= 4.38D-02 ExpMax= 8.59D+03 ExpMxC= 1.30D+03 IAcc=3 IRadAn=         5 AccDes= 0.00D+00
 Harris functional with IExCor= 1009 and IRadAn=       5 diagonalized for initial guess.
 HarFok:  IExCor= 1009 AccDes= 0.00D+00 IRadAn=         5 IDoV= 1 UseB2=F ITyADJ=14
 ICtDFT=  3500011 ScaDFX=  1.000000  1.000000  1.000000  1.000000
 FoFCou: FMM=F IPFlag=           0 FMFlag=      100000 FMFlg1=           0
         NFxFlg=           0 DoJE=T BraDBF=F KetDBF=T FulRan=T
         wScrn=  0.000000 ICntrl=       500 IOpCl=  0 I1Cent=   200000004 NGrid=           0
         NMat0=    1 NMatS0=      1 NMatT0=    0 NMatD0=    1 NMtDS0=    0 NMtDT0=    0
 Petite list used in FoFCou.
 Harris En= -306.834777825216    
 JPrj=0 DoOrth=F DoCkMO=F.
 Initial guess <Sx>= 0.0000 <Sy>= 0.0000 <Sz>= 0.5000 <S**2>= 0.7500 S= 0.5000
 Leave Link  401 at Tue Apr  9 01:59:49 2019, MaxMem=   671088640 cpu:              15.3 elap:               0.8
 (Enter /shared/centos7/gaussian/g16/l502.exe)
 Integral symmetry usage will be decided dynamically.
 UHF open shell SCF:
 Using DIIS extrapolation, IDIIS=  1040.
 NGot=   671088640 LenX=   670903575 LenY=   670814925
 Requested convergence on RMS density matrix=1.00D-08 within 128 cycles.
 Requested convergence on MAX density matrix=1.00D-06.
 Requested convergence on             energy=1.00D-06.
 No special actions if energy rises.
 Fock matrices will be formed incrementally for  20 cycles.

 Cycle   1  Pass 1  IDiag  1:
 FoFJK:  IHMeth= 1 ICntrl=       0 DoSepK=F KAlg= 0 I1Cent=           0 FoldK=F
 IRaf= 970000000 NMat=       1 IRICut=       1 DoRegI=T DoRafI=F ISym2E= 0 IDoP0=0 IntGTp=1.
 FoFCou: FMM=F IPFlag=           0 FMFlag=      100000 FMFlg1=           0
         NFxFlg=           0 DoJE=F BraDBF=F KetDBF=F FulRan=T
         wScrn=  0.000000 ICntrl=         0 IOpCl=  1 I1Cent=           0 NGrid=           0
         NMat0=    1 NMatS0=      1 NMatT0=    0 NMatD0=    1 NMtDS0=    0 NMtDT0=    0
 Symmetry not used in FoFCou.
 E= -306.821035665167    
 DIIS: error= 1.80D-02 at cycle   1 NSaved=   1.
 NSaved= 1 IEnMin= 1 EnMin= -306.821035665167     IErMin= 1 ErrMin= 1.80D-02
 ErrMax= 1.80D-02  0.00D+00 EMaxC= 1.00D-01 BMatC= 9.45D-01 BMatP= 9.45D-01
 IDIUse=3 WtCom= 8.20D-01 WtEn= 1.80D-01
 Coeff-Com:  0.100D+01
 Coeff-En:   0.100D+01
 Coeff:      0.100D+01
 Gap=     0.271 Goal=   None    Shift=    0.000
 Gap=     0.319 Goal=   None    Shift=    0.000
 GapD=    0.271 DampG=1.000 DampE=0.500 DampFc=0.5000 IDamp=-1.
 Damping current iteration by 5.00D-01
 RMSDP=2.66D-03 MaxDP=8.41D-02              OVMax= 2.13D-01

 Cycle   2  Pass 1  IDiag  1:
 RMSU=  1.32D-03    CP:  9.82D-01
 E= -306.894391425795     Delta-E=       -0.073355760628 Rises=F Damp=T
 DIIS: error= 6.09D-03 at cycle   2 NSaved=   2.
 NSaved= 2 IEnMin= 2 EnMin= -306.894391425795     IErMin= 2 ErrMin= 6.09D-03
 ErrMax= 6.09D-03  0.00D+00 EMaxC= 1.00D-01 BMatC= 1.01D-01 BMatP= 9.45D-01
 IDIUse=3 WtCom= 9.39D-01 WtEn= 6.09D-02
 Coeff-Com:  0.279D-01 0.972D+00
 Coeff-En:   0.708D-01 0.929D+00
 Coeff:      0.305D-01 0.969D+00
 Gap=     0.314 Goal=   None    Shift=    0.000
 Gap=     0.332 Goal=   None    Shift=    0.000
 RMSDP=1.09D-03 MaxDP=5.91D-02 DE=-7.34D-02 OVMax= 1.09D-01

 Cycle   3  Pass 1  IDiag  1:
 RMSU=  1.06D-03    CP:  9.58D-01  9.99D-01
 E= -306.974447066444     Delta-E=       -0.080055640649 Rises=F Damp=F
 DIIS: error= 6.80D-03 at cycle   3 NSaved=   3.
 NSaved= 3 IEnMin= 3 EnMin= -306.974447066444     IErMin= 2 ErrMin= 6.09D-03
 ErrMax= 6.80D-03  0.00D+00 EMaxC= 1.00D-01 BMatC= 8.01D-02 BMatP= 1.01D-01
 IDIUse=3 WtCom= 9.32D-01 WtEn= 6.80D-02
 Coeff-Com: -0.830D-01 0.497D+00 0.586D+00
 Coeff-En:   0.000D+00 0.000D+00 0.100D+01
 Coeff:     -0.773D-01 0.464D+00 0.614D+00
 Gap=     0.311 Goal=   None    Shift=    0.000
 Gap=     0.321 Goal=   None    Shift=    0.000
 RMSDP=4.55D-04 MaxDP=1.59D-02 DE=-8.01D-02 OVMax= 5.46D-02

 Cycle   4  Pass 1  IDiag  1:
 RMSU=  3.85D-04    CP:  9.59D-01  1.16D+00  8.80D-01
 E= -306.987525614637     Delta-E=       -0.013078548193 Rises=F Damp=F
 DIIS: error= 2.12D-03 at cycle   4 NSaved=   4.
 NSaved= 4 IEnMin= 4 EnMin= -306.987525614637     IErMin= 4 ErrMin= 2.12D-03
 ErrMax= 2.12D-03  0.00D+00 EMaxC= 1.00D-01 BMatC= 1.16D-02 BMatP= 8.01D-02
 IDIUse=3 WtCom= 9.79D-01 WtEn= 2.12D-02
 Coeff-Com: -0.340D-01 0.813D-01 0.312D+00 0.640D+00
 Coeff-En:   0.000D+00 0.000D+00 0.103D+00 0.897D+00
 Coeff:     -0.333D-01 0.796D-01 0.308D+00 0.646D+00
 Gap=     0.306 Goal=   None    Shift=    0.000
 Gap=     0.309 Goal=   None    Shift=    0.000
 RMSDP=1.56D-04 MaxDP=5.26D-03 DE=-1.31D-02 OVMax= 1.43D-02

 Cycle   5  Pass 1  IDiag  1:
 RMSU=  8.81D-05    CP:  9.57D-01  1.12D+00  9.61D-01  7.82D-01
 E= -306.989801635138     Delta-E=       -0.002276020501 Rises=F Damp=F
 DIIS: error= 4.59D-04 at cycle   5 NSaved=   5.
 NSaved= 5 IEnMin= 5 EnMin= -306.989801635138     IErMin= 5 ErrMin= 4.59D-04
 ErrMax= 4.59D-04  0.00D+00 EMaxC= 1.00D-01 BMatC= 4.52D-04 BMatP= 1.16D-02
 IDIUse=3 WtCom= 9.95D-01 WtEn= 4.59D-03
 Coeff-Com: -0.880D-02 0.946D-02 0.981D-01 0.262D+00 0.639D+00
 Coeff-En:   0.000D+00 0.000D+00 0.000D+00 0.000D+00 0.100D+01
 Coeff:     -0.876D-02 0.942D-02 0.976D-01 0.261D+00 0.641D+00
 Gap=     0.306 Goal=   None    Shift=    0.000
 Gap=     0.309 Goal=   None    Shift=    0.000
 RMSDP=4.44D-05 MaxDP=2.65D-03 DE=-2.28D-03 OVMax= 3.70D-03

 Cycle   6  Pass 1  IDiag  1:
 RMSU=  3.76D-05    CP:  9.57D-01  1.13D+00  9.76D-01  8.22D-01  1.07D+00
 E= -306.989906515387     Delta-E=       -0.000104880249 Rises=F Damp=F
 DIIS: error= 2.32D-04 at cycle   6 NSaved=   6.
 NSaved= 6 IEnMin= 6 EnMin= -306.989906515387     IErMin= 6 ErrMin= 2.32D-04
 ErrMax= 2.32D-04  0.00D+00 EMaxC= 1.00D-01 BMatC= 8.38D-05 BMatP= 4.52D-04
 IDIUse=3 WtCom= 9.98D-01 WtEn= 2.32D-03
 Coeff-Com:  0.426D-02-0.154D-01-0.311D-01-0.493D-01 0.239D+00 0.852D+00
 Coeff-En:   0.000D+00 0.000D+00 0.000D+00 0.000D+00 0.000D+00 0.100D+01
 Coeff:      0.425D-02-0.154D-01-0.310D-01-0.492D-01 0.239D+00 0.853D+00
 Gap=     0.307 Goal=   None    Shift=    0.000
 Gap=     0.309 Goal=   None    Shift=    0.000
 RMSDP=3.59D-05 MaxDP=2.27D-03 DE=-1.05D-04 OVMax= 3.13D-03

 Cycle   7  Pass 1  IDiag  1:
 RMSU=  2.03D-05    CP:  9.57D-01  1.13D+00  9.91D-01  8.50D-01  1.28D+00
                    CP:  1.33D+00
 E= -306.989938891257     Delta-E=       -0.000032375870 Rises=F Damp=F
 DIIS: error= 7.97D-05 at cycle   7 NSaved=   7.
 NSaved= 7 IEnMin= 7 EnMin= -306.989938891257     IErMin= 7 ErrMin= 7.97D-05
 ErrMax= 7.97D-05  0.00D+00 EMaxC= 1.00D-01 BMatC= 9.65D-06 BMatP= 8.38D-05
 IDIUse=1 WtCom= 1.00D+00 WtEn= 0.00D+00
 Coeff-Com:  0.281D-02-0.537D-02-0.246D-01-0.653D-01-0.724D-01 0.189D+00
 Coeff-Com:  0.976D+00
 Coeff:      0.281D-02-0.537D-02-0.246D-01-0.653D-01-0.724D-01 0.189D+00
 Coeff:      0.976D+00
 Gap=     0.307 Goal=   None    Shift=    0.000
 Gap=     0.310 Goal=   None    Shift=    0.000
 RMSDP=1.74D-05 MaxDP=1.03D-03 DE=-3.24D-05 OVMax= 1.76D-03

 Cycle   8  Pass 1  IDiag  1:
 RMSU=  6.29D-06    CP:  9.57D-01  1.13D+00  9.95D-01  8.57D-01  1.40D+00
                    CP:  1.59D+00  1.32D+00
 E= -306.989944067171     Delta-E=       -0.000005175913 Rises=F Damp=F
 DIIS: error= 2.38D-05 at cycle   8 NSaved=   8.
 NSaved= 8 IEnMin= 8 EnMin= -306.989944067171     IErMin= 8 ErrMin= 2.38D-05
 ErrMax= 2.38D-05  0.00D+00 EMaxC= 1.00D-01 BMatC= 1.10D-06 BMatP= 9.65D-06
 IDIUse=1 WtCom= 1.00D+00 WtEn= 0.00D+00
 Coeff-Com:  0.367D-03-0.165D-03-0.368D-02-0.142D-01-0.443D-01-0.174D-01
 Coeff-Com:  0.293D+00 0.786D+00
 Coeff:      0.367D-03-0.165D-03-0.368D-02-0.142D-01-0.443D-01-0.174D-01
 Coeff:      0.293D+00 0.786D+00
 Gap=     0.307 Goal=   None    Shift=    0.000
 Gap=     0.310 Goal=   None    Shift=    0.000
 RMSDP=3.76D-06 MaxDP=2.18D-04 DE=-5.18D-06 OVMax= 3.28D-04

 Cycle   9  Pass 1  IDiag  1:
 RMSU=  1.85D-06    CP:  9.57D-01  1.13D+00  9.95D-01  8.58D-01  1.41D+00
                    CP:  1.64D+00  1.42D+00  1.06D+00
 E= -306.989944476237     Delta-E=       -0.000000409067 Rises=F Damp=F
 DIIS: error= 9.18D-06 at cycle   9 NSaved=   9.
 NSaved= 9 IEnMin= 9 EnMin= -306.989944476237     IErMin= 9 ErrMin= 9.18D-06
 ErrMax= 9.18D-06  0.00D+00 EMaxC= 1.00D-01 BMatC= 1.11D-07 BMatP= 1.10D-06
 IDIUse=1 WtCom= 1.00D+00 WtEn= 0.00D+00
 Coeff-Com: -0.390D-03 0.846D-03 0.307D-02 0.754D-02 0.193D-02-0.274D-01
 Coeff-Com: -0.975D-01 0.122D+00 0.990D+00
 Coeff:     -0.390D-03 0.846D-03 0.307D-02 0.754D-02 0.193D-02-0.274D-01
 Coeff:     -0.975D-01 0.122D+00 0.990D+00
 Gap=     0.307 Goal=   None    Shift=    0.000
 Gap=     0.310 Goal=   None    Shift=    0.000
 RMSDP=1.39D-06 MaxDP=6.70D-05 DE=-4.09D-07 OVMax= 2.01D-04

 Cycle  10  Pass 1  IDiag  1:
 RMSU=  8.47D-07    CP:  9.57D-01  1.13D+00  9.95D-01  8.58D-01  1.41D+00
                    CP:  1.65D+00  1.45D+00  1.17D+00  1.23D+00
 E= -306.989944547159     Delta-E=       -0.000000070922 Rises=F Damp=F
 DIIS: error= 2.41D-06 at cycle  10 NSaved=  10.
 NSaved=10 IEnMin=10 EnMin= -306.989944547159     IErMin=10 ErrMin= 2.41D-06
 ErrMax= 2.41D-06  0.00D+00 EMaxC= 1.00D-01 BMatC= 1.19D-08 BMatP= 1.11D-07
 IDIUse=1 WtCom= 1.00D+00 WtEn= 0.00D+00
 Coeff-Com: -0.683D-04 0.999D-04 0.522D-03 0.191D-02 0.370D-02-0.940D-03
 Coeff-Com: -0.344D-01-0.557D-01 0.794D-01 0.101D+01
 Coeff:     -0.683D-04 0.999D-04 0.522D-03 0.191D-02 0.370D-02-0.940D-03
 Coeff:     -0.344D-01-0.557D-01 0.794D-01 0.101D+01
 Gap=     0.307 Goal=   None    Shift=    0.000
 Gap=     0.310 Goal=   None    Shift=    0.000
 RMSDP=5.78D-07 MaxDP=3.37D-05 DE=-7.09D-08 OVMax= 9.89D-05

 Cycle  11  Pass 1  IDiag  1:
 RMSU=  3.46D-07    CP:  9.57D-01  1.13D+00  9.95D-01  8.58D-01  1.41D+00
                    CP:  1.66D+00  1.46D+00  1.20D+00  1.38D+00  1.19D+00
 E= -306.989944558182     Delta-E=       -0.000000011023 Rises=F Damp=F
 DIIS: error= 1.25D-06 at cycle  11 NSaved=  11.
 NSaved=11 IEnMin=11 EnMin= -306.989944558182     IErMin=11 ErrMin= 1.25D-06
 ErrMax= 1.25D-06  0.00D+00 EMaxC= 1.00D-01 BMatC= 2.47D-09 BMatP= 1.19D-08
 IDIUse=1 WtCom= 1.00D+00 WtEn= 0.00D+00
 Coeff-Com:  0.512D-04-0.111D-03-0.421D-03-0.920D-03 0.325D-03 0.376D-02
 Coeff-Com:  0.107D-01-0.242D-01-0.154D+00 0.141D+00 0.102D+01
 Coeff:      0.512D-04-0.111D-03-0.421D-03-0.920D-03 0.325D-03 0.376D-02
 Coeff:      0.107D-01-0.242D-01-0.154D+00 0.141D+00 0.102D+01
 Gap=     0.307 Goal=   None    Shift=    0.000
 Gap=     0.310 Goal=   None    Shift=    0.000
 RMSDP=2.61D-07 MaxDP=9.49D-06 DE=-1.10D-08 OVMax= 5.66D-05

 Cycle  12  Pass 1  IDiag  1:
 RMSU=  1.05D-07    CP:  9.57D-01  1.13D+00  9.95D-01  8.58D-01  1.41D+00
                    CP:  1.66D+00  1.45D+00  1.20D+00  1.44D+00  1.40D+00
                    CP:  1.36D+00
 E= -306.989944560877     Delta-E=       -0.000000002695 Rises=F Damp=F
 DIIS: error= 5.83D-07 at cycle  12 NSaved=  12.
 NSaved=12 IEnMin=12 EnMin= -306.989944560877     IErMin=12 ErrMin= 5.83D-07
 ErrMax= 5.83D-07  0.00D+00 EMaxC= 1.00D-01 BMatC= 4.93D-10 BMatP= 2.47D-09
 IDIUse=1 WtCom= 1.00D+00 WtEn= 0.00D+00
 Coeff-Com:  0.197D-04-0.374D-04-0.167D-03-0.485D-03-0.540D-03 0.794D-03
 Coeff-Com:  0.807D-02 0.584D-02-0.414D-01-0.151D+00 0.184D+00 0.994D+00
 Coeff:      0.197D-04-0.374D-04-0.167D-03-0.485D-03-0.540D-03 0.794D-03
 Coeff:      0.807D-02 0.584D-02-0.414D-01-0.151D+00 0.184D+00 0.994D+00
 Gap=     0.307 Goal=   None    Shift=    0.000
 Gap=     0.310 Goal=   None    Shift=    0.000
 RMSDP=1.17D-07 MaxDP=4.45D-06 DE=-2.69D-09 OVMax= 2.53D-05

 Cycle  13  Pass 1  IDiag  1:
 RMSU=  5.27D-08    CP:  9.57D-01  1.13D+00  9.95D-01  8.58D-01  1.41D+00
                    CP:  1.66D+00  1.45D+00  1.20D+00  1.45D+00  1.47D+00
                    CP:  1.55D+00  1.33D+00
 E= -306.989944561408     Delta-E=       -0.000000000530 Rises=F Damp=F
 DIIS: error= 2.17D-07 at cycle  13 NSaved=  13.
 NSaved=13 IEnMin=13 EnMin= -306.989944561408     IErMin=13 ErrMin= 2.17D-07
 ErrMax= 2.17D-07  0.00D+00 EMaxC= 1.00D-01 BMatC= 8.84D-11 BMatP= 4.93D-10
 IDIUse=1 WtCom= 1.00D+00 WtEn= 0.00D+00
 Coeff-Com: -0.751D-05 0.174D-04 0.570D-04 0.105D-03-0.175D-03-0.581D-03
 Coeff-Com: -0.768D-03 0.574D-02 0.256D-01-0.635D-01-0.188D+00 0.210D+00
 Coeff-Com:  0.101D+01
 Coeff:     -0.751D-05 0.174D-04 0.570D-04 0.105D-03-0.175D-03-0.581D-03
 Coeff:     -0.768D-03 0.574D-02 0.256D-01-0.635D-01-0.188D+00 0.210D+00
 Coeff:      0.101D+01
 Gap=     0.307 Goal=   None    Shift=    0.000
 Gap=     0.310 Goal=   None    Shift=    0.000
 RMSDP=5.76D-08 MaxDP=2.09D-06 DE=-5.30D-10 OVMax= 1.23D-05

 Cycle  14  Pass 1  IDiag  1:
 RMSU=  1.95D-08    CP:  9.57D-01  1.13D+00  9.95D-01  8.58D-01  1.41D+00
                    CP:  1.66D+00  1.46D+00  1.21D+00  1.46D+00  1.49D+00
                    CP:  1.63D+00  1.63D+00  1.32D+00
 E= -306.989944561495     Delta-E=       -0.000000000087 Rises=F Damp=F
 DIIS: error= 6.43D-08 at cycle  14 NSaved=  14.
 NSaved=14 IEnMin=14 EnMin= -306.989944561495     IErMin=14 ErrMin= 6.43D-08
 ErrMax= 6.43D-08  0.00D+00 EMaxC= 1.00D-01 BMatC= 7.55D-12 BMatP= 8.84D-11
 IDIUse=1 WtCom= 1.00D+00 WtEn= 0.00D+00
 Coeff-Com: -0.306D-05 0.610D-05 0.289D-04 0.694D-04 0.297D-04-0.159D-03
 Coeff-Com: -0.107D-02-0.746D-04 0.878D-02 0.975D-02-0.459D-01-0.924D-01
 Coeff-Com:  0.109D+00 0.101D+01
 Coeff:     -0.306D-05 0.610D-05 0.289D-04 0.694D-04 0.297D-04-0.159D-03
 Coeff:     -0.107D-02-0.746D-04 0.878D-02 0.975D-02-0.459D-01-0.924D-01
 Coeff:      0.109D+00 0.101D+01
 Gap=     0.307 Goal=   None    Shift=    0.000
 Gap=     0.310 Goal=   None    Shift=    0.000
 RMSDP=1.68D-08 MaxDP=6.56D-07 DE=-8.72D-11 OVMax= 2.88D-06

 Cycle  15  Pass 1  IDiag  1:
 RMSU=  6.79D-09    CP:  9.57D-01  1.13D+00  9.95D-01  8.58D-01  1.41D+00
                    CP:  1.66D+00  1.46D+00  1.21D+00  1.46D+00  1.50D+00
                    CP:  1.63D+00  1.70D+00  1.51D+00  1.26D+00
 E= -306.989944561503     Delta-E=       -0.000000000009 Rises=F Damp=F
 DIIS: error= 2.73D-08 at cycle  15 NSaved=  15.
 NSaved=15 IEnMin=15 EnMin= -306.989944561503     IErMin=15 ErrMin= 2.73D-08
 ErrMax= 2.73D-08  0.00D+00 EMaxC= 1.00D-01 BMatC= 1.15D-12 BMatP= 7.55D-12
 IDIUse=1 WtCom= 1.00D+00 WtEn= 0.00D+00
 Coeff-Com:  0.147D-06-0.383D-06 0.266D-05 0.540D-05 0.216D-04 0.677D-05
 Coeff-Com: -0.166D-03-0.483D-03-0.276D-03 0.736D-02 0.651D-02-0.348D-01
 Coeff-Com: -0.693D-01 0.199D+00 0.892D+00
 Coeff:      0.147D-06-0.383D-06 0.266D-05 0.540D-05 0.216D-04 0.677D-05
 Coeff:     -0.166D-03-0.483D-03-0.276D-03 0.736D-02 0.651D-02-0.348D-01
 Coeff:     -0.693D-01 0.199D+00 0.892D+00
 Gap=     0.307 Goal=   None    Shift=    0.000
 Gap=     0.310 Goal=   None    Shift=    0.000
 RMSDP=4.88D-09 MaxDP=2.58D-07 DE=-8.75D-12 OVMax= 4.98D-07

 SCF Done:  E(UM062X) =  -306.989944562     A.U. after   15 cycles
            NFock= 15  Conv=0.49D-08     -V/T= 2.0051
 <Sx>= 0.0000 <Sy>= 0.0000 <Sz>= 0.5000 <S**2>= 0.7553 S= 0.5026
 <L.S>= 0.000000000000E+00
 KE= 3.054358812292D+02 PE=-1.188240353381D+03 EE= 3.406243335192D+02
 Annihilation of the first spin contaminant:
 S**2 before annihilation     0.7553,   after     0.7500
 Leave Link  502 at Tue Apr  9 02:00:37 2019, MaxMem=   671088640 cpu:             968.0 elap:              48.5
 (Enter /shared/centos7/gaussian/g16/l801.exe)
 DoSCS=F DFT=T ScalE2(SS,OS)=  1.000000  1.000000
 Range of M.O.s used for correlation:     1   267
 NBasis=   267 NAE=    24 NBE=    23 NFC=     0 NFV=     0
 NROrb=    267 NOA=    24 NOB=    23 NVA=   243 NVB=   244

 **** Warning!!: The largest alpha MO coefficient is  0.49502528D+02


 **** Warning!!: The largest beta MO coefficient is  0.48048315D+02

 Leave Link  801 at Tue Apr  9 02:00:37 2019, MaxMem=   671088640 cpu:               0.4 elap:               0.0
 (Enter /shared/centos7/gaussian/g16/l1101.exe)
 Using compressed storage, NAtomX=    13.
 Will process     14 centers per pass.
 Leave Link 1101 at Tue Apr  9 02:00:38 2019, MaxMem=   671088640 cpu:               6.6 elap:               0.4
 (Enter /shared/centos7/gaussian/g16/l1102.exe)
 Symmetrizing basis deriv contribution to polar:
 IMax=3 JMax=2 DiffMx= 0.00D+00
 Leave Link 1102 at Tue Apr  9 02:00:38 2019, MaxMem=   671088640 cpu:               0.5 elap:               0.1
 (Enter /shared/centos7/gaussian/g16/l1110.exe)
 Forming Gx(P) for the SCF density, NAtomX=    13.
 Integral derivatives from FoFJK, PRISM(SPDF).
 Do as many integral derivatives as possible in FoFJK.
 G2DrvN: MDV=     671087568.
 G2DrvN: will do    14 centers at a time, making    1 passes.
 Calling FoFCou, ICntrl=  3107 FMM=F I1Cent=   0 AccDes= 0.00D+00.
 FoFJK:  IHMeth= 1 ICntrl=    3107 DoSepK=F KAlg= 0 I1Cent=           0 FoldK=F
 IRaf=         0 NMat=       1 IRICut=       1 DoRegI=T DoRafI=F ISym2E= 0 IDoP0=0 IntGTp=1.
 FoFCou: FMM=F IPFlag=           0 FMFlag=      100000 FMFlg1=           0
         NFxFlg=           0 DoJE=F BraDBF=F KetDBF=F FulRan=T
         wScrn=  0.000000 ICntrl=      3107 IOpCl=  1 I1Cent=           0 NGrid=           0
         NMat0=    1 NMatS0=      1 NMatT0=    0 NMatD0=    1 NMtDS0=    0 NMtDT0=    0
 Symmetry not used in FoFCou.
 End of G2Drv F.D. properties file   721 does not exist.
 End of G2Drv F.D. properties file   722 does not exist.
 End of G2Drv F.D. properties file   788 does not exist.
 Leave Link 1110 at Tue Apr  9 02:01:59 2019, MaxMem=   671088640 cpu:            1615.6 elap:              80.8
 (Enter /shared/centos7/gaussian/g16/l1002.exe)
 Minotr:  UHF open shell wavefunction.
          IDoAtm=1111111111111
          Direct CPHF calculation.
          Differentiating once with respect to nuclear coordinates.
          Requested convergence is 1.0D-08 RMS, and 1.0D-07 maximum.
          Secondary convergence is 1.0D-12 RMS, and 1.0D-12 maximum.
          NewPWx=T KeepS1=F KeepF1=F KeepIn=T MapXYZ=F SortEE=F KeepMc=T.
         3959 words used for storage of precomputed grid.
 Two-electron integrals replicated using symmetry.
          MDV=     671088640 using IRadAn=       1.
          Solving linear equations simultaneously, MaxMat=     380.
 FoF2E skips out because all densities are zero.
 CalDSu exits because no D1Ps are significant.
 FoFJK:  IHMeth= 1 ICntrl=       0 DoSepK=F KAlg= 0 I1Cent=           0 FoldK=F
 IRaf= 960000000 NMat=      39 IRICut=      97 DoRegI=T DoRafI=T ISym2E= 2 IDoP0=3 IntGTp=3.
 FoFCou: FMM=F IPFlag=           0 FMFlag=      100000 FMFlg1=           0
         NFxFlg=           0 DoJE=F BraDBF=F KetDBF=F FulRan=T
         wScrn=  0.000000 ICntrl=         0 IOpCl=  1 I1Cent=           0 NGrid=           0
         NMat0=   39 NMatS0=     39 NMatT0=    0 NMatD0=   39 NMtDS0=    0 NMtDT0=    0
 Integrals replicated using symmetry in FoFCou.
 Raff kept on since  93.92% of shell-pairs survive, threshold=   0.20 IRatSp=94.
          There are    42 degrees of freedom in the 1st order CPHF.  IDoFFX=6 NUNeed=     0.
     36 vectors produced by pass  0 Test12= 2.72D-14 2.38D-09 XBig12= 1.46D-01 9.31D-02.
 AX will form    36 AO Fock derivatives at one time.
     36 vectors produced by pass  1 Test12= 2.72D-14 2.38D-09 XBig12= 2.20D-02 4.02D-02.
     36 vectors produced by pass  2 Test12= 2.72D-14 2.38D-09 XBig12= 9.15D-04 4.72D-03.
     36 vectors produced by pass  3 Test12= 2.72D-14 2.38D-09 XBig12= 1.15D-05 4.97D-04.
     36 vectors produced by pass  4 Test12= 2.72D-14 2.38D-09 XBig12= 1.86D-07 5.44D-05.
     36 vectors produced by pass  5 Test12= 2.72D-14 2.38D-09 XBig12= 2.18D-09 5.20D-06.
     36 vectors produced by pass  6 Test12= 2.72D-14 2.38D-09 XBig12= 1.91D-11 4.10D-07.
     18 vectors produced by pass  7 Test12= 2.72D-14 2.38D-09 XBig12= 1.78D-13 3.43D-08.
      1 vectors produced by pass  8 Test12= 2.72D-14 2.38D-09 XBig12= 1.21D-15 2.93D-09.
 InvSVY:  IOpt=1 It=  1 EMax= 2.00D-15
 Solved reduced A of dimension   271 with    36 vectors.
 End of Minotr F.D. properties file   721 does not exist.
 End of Minotr F.D. properties file   722 does not exist.
 End of Minotr F.D. properties file   788 does not exist.
 Leave Link 1002 at Tue Apr  9 02:04:03 2019, MaxMem=   671088640 cpu:            2487.6 elap:             124.4
 (Enter /shared/centos7/gaussian/g16/l601.exe)
 Copying SCF densities to generalized density rwf, IOpCl= 1 IROHF=0.

 **********************************************************************

            Population analysis using the SCF density.

 **********************************************************************

 Orbital symmetries:
 Alpha Orbitals:
       Occupied  (A) (A) (A) (A) (A) (A) (A) (A) (A) (A) (A) (A)
                 (A) (A) (A) (A) (A) (A) (A) (A) (A) (A) (A) (A)
       Virtual   (A) (A) (A) (A) (A) (A) (A) (A) (A) (A) (A) (A)
                 (A) (A) (A) (A) (A) (A) (A) (A) (A) (A) (A) (A)
                 (A) (A) (A) (A) (A) (A) (A) (A) (A) (A) (A) (A)
                 (A) (A) (A) (A) (A) (A) (A) (A) (A) (A) (A) (A)
                 (A) (A) (A) (A) (A) (A) (A) (A) (A) (A) (A) (A)
                 (A) (A) (A) (A) (A) (A) (A) (A) (A) (A) (A) (A)
                 (A) (A) (A) (A) (A) (A) (A) (A) (A) (A) (A) (A)
                 (A) (A) (A) (A) (A) (A) (A) (A) (A) (A) (A) (A)
                 (A) (A) (A) (A) (A) (A) (A) (A) (A) (A) (A) (A)
                 (A) (A) (A) (A) (A) (A) (A) (A) (A) (A) (A) (A)
                 (A) (A) (A) (A) (A) (A) (A) (A) (A) (A) (A) (A)
                 (A) (A) (A) (A) (A) (A) (A) (A) (A) (A) (A) (A)
                 (A) (A) (A) (A) (A) (A) (A) (A) (A) (A) (A) (A)
                 (A) (A) (A) (A) (A) (A) (A) (A) (A) (A) (A) (A)
                 (A) (A) (A) (A) (A) (A) (A) (A) (A) (A) (A) (A)
                 (A) (A) (A) (A) (A) (A) (A) (A) (A) (A) (A) (A)
                 (A) (A) (A) (A) (A) (A) (A) (A) (A) (A) (A) (A)
                 (A) (A) (A) (A) (A) (A) (A) (A) (A) (A) (A) (A)
                 (A) (A) (A) (A) (A) (A) (A) (A) (A) (A) (A) (A)
                 (A) (A) (A) (A) (A) (A) (A) (A) (A) (A) (A) (A)
                 (A) (A) (A)
 Beta  Orbitals:
       Occupied  (A) (A) (A) (A) (A) (A) (A) (A) (A) (A) (A) (A)
                 (A) (A) (A) (A) (A) (A) (A) (A) (A) (A) (A)
       Virtual   (A) (A) (A) (A) (A) (A) (A) (A) (A) (A) (A) (A)
                 (A) (A) (A) (A) (A) (A) (A) (A) (A) (A) (A) (A)
                 (A) (A) (A) (A) (A) (A) (A) (A) (A) (A) (A) (A)
                 (A) (A) (A) (A) (A) (A) (A) (A) (A) (A) (A) (A)
                 (A) (A) (A) (A) (A) (A) (A) (A) (A) (A) (A) (A)
                 (A) (A) (A) (A) (A) (A) (A) (A) (A) (A) (A) (A)
                 (A) (A) (A) (A) (A) (A) (A) (A) (A) (A) (A) (A)
                 (A) (A) (A) (A) (A) (A) (A) (A) (A) (A) (A) (A)
                 (A) (A) (A) (A) (A) (A) (A) (A) (A) (A) (A) (A)
                 (A) (A) (A) (A) (A) (A) (A) (A) (A) (A) (A) (A)
                 (A) (A) (A) (A) (A) (A) (A) (A) (A) (A) (A) (A)
                 (A) (A) (A) (A) (A) (A) (A) (A) (A) (A) (A) (A)
                 (A) (A) (A) (A) (A) (A) (A) (A) (A) (A) (A) (A)
                 (A) (A) (A) (A) (A) (A) (A) (A) (A) (A) (A) (A)
                 (A) (A) (A) (A) (A) (A) (A) (A) (A) (A) (A) (A)
                 (A) (A) (A) (A) (A) (A) (A) (A) (A) (A) (A) (A)
                 (A) (A) (A) (A) (A) (A) (A) (A) (A) (A) (A) (A)
                 (A) (A) (A) (A) (A) (A) (A) (A) (A) (A) (A) (A)
                 (A) (A) (A) (A) (A) (A) (A) (A) (A) (A) (A) (A)
                 (A) (A) (A) (A) (A) (A) (A) (A) (A) (A) (A) (A)
                 (A) (A) (A) (A)
 The electronic state is 2-A.
 Alpha  occ. eigenvalues --  -19.68239 -19.62102 -10.68918 -10.59455 -10.57175
 Alpha  occ. eigenvalues --  -10.57027  -1.23224  -1.12523  -0.90638  -0.81497
 Alpha  occ. eigenvalues --   -0.72919  -0.65387  -0.58879  -0.57433  -0.56816
 Alpha  occ. eigenvalues --   -0.53043  -0.49381  -0.48665  -0.43863  -0.43153
 Alpha  occ. eigenvalues --   -0.43101  -0.37853  -0.36828  -0.29415
 Alpha virt. eigenvalues --    0.01330   0.01960   0.03052   0.03810   0.04328
 Alpha virt. eigenvalues --    0.05651   0.05833   0.06251   0.07878   0.09002
 Alpha virt. eigenvalues --    0.09358   0.10595   0.10965   0.13134   0.13584
 Alpha virt. eigenvalues --    0.15779   0.16588   0.18106   0.19408   0.20143
 Alpha virt. eigenvalues --    0.20765   0.21867   0.23819   0.23889   0.25270
 Alpha virt. eigenvalues --    0.26258   0.27016   0.28188   0.29485   0.30353
 Alpha virt. eigenvalues --    0.32068   0.33316   0.33939   0.35849   0.36709
 Alpha virt. eigenvalues --    0.40240   0.42481   0.44033   0.44437   0.46465
 Alpha virt. eigenvalues --    0.49318   0.51529   0.53132   0.54063   0.54800
 Alpha virt. eigenvalues --    0.55728   0.56503   0.57183   0.58063   0.59332
 Alpha virt. eigenvalues --    0.61495   0.62635   0.63704   0.64591   0.64900
 Alpha virt. eigenvalues --    0.66839   0.68942   0.71995   0.73153   0.76442
 Alpha virt. eigenvalues --    0.78281   0.81078   0.83149   0.85162   0.88627
 Alpha virt. eigenvalues --    0.88845   0.92317   0.95307   0.97392   0.98127
 Alpha virt. eigenvalues --    1.00892   1.05012   1.06161   1.07937   1.08220
 Alpha virt. eigenvalues --    1.09947   1.14595   1.14614   1.16190   1.18125
 Alpha virt. eigenvalues --    1.18748   1.19999   1.21348   1.21822   1.22567
 Alpha virt. eigenvalues --    1.24675   1.26890   1.29688   1.30398   1.33534
 Alpha virt. eigenvalues --    1.33810   1.34075   1.37682   1.39627   1.41586
 Alpha virt. eigenvalues --    1.43479   1.44188   1.44976   1.47714   1.49847
 Alpha virt. eigenvalues --    1.52038   1.54354   1.56851   1.57608   1.61390
 Alpha virt. eigenvalues --    1.67254   1.68166   1.72111   1.73827   1.77402
 Alpha virt. eigenvalues --    1.81568   1.93071   2.01746   2.10620   2.16360
 Alpha virt. eigenvalues --    2.27459   2.32627   2.40814   2.42415   2.46208
 Alpha virt. eigenvalues --    2.50377   2.52705   2.58365   2.64178   2.66060
 Alpha virt. eigenvalues --    2.67861   2.75534   2.76078   2.78761   2.80525
 Alpha virt. eigenvalues --    2.82176   2.87116   2.93017   2.95248   2.95763
 Alpha virt. eigenvalues --    2.98726   3.00963   3.01794   3.03745   3.06359
 Alpha virt. eigenvalues --    3.07789   3.11150   3.11342   3.12286   3.14569
 Alpha virt. eigenvalues --    3.18725   3.21139   3.21708   3.24596   3.25699
 Alpha virt. eigenvalues --    3.28811   3.31234   3.34078   3.34497   3.38714
 Alpha virt. eigenvalues --    3.39702   3.44080   3.44304   3.47014   3.50260
 Alpha virt. eigenvalues --    3.53040   3.53804   3.56536   3.59736   3.63069
 Alpha virt. eigenvalues --    3.65429   3.71395   3.72118   3.73529   3.78280
 Alpha virt. eigenvalues --    3.80141   3.81641   3.82892   3.86111   3.87396
 Alpha virt. eigenvalues --    3.93836   3.94724   3.97187   4.02965   4.04551
 Alpha virt. eigenvalues --    4.08133   4.09009   4.11453   4.13761   4.15835
 Alpha virt. eigenvalues --    4.18167   4.22136   4.24093   4.28086   4.28655
 Alpha virt. eigenvalues --    4.34707   4.36189   4.38284   4.40629   4.44783
 Alpha virt. eigenvalues --    4.47711   4.55290   4.62286   4.69143   4.88921
 Alpha virt. eigenvalues --    4.95977   5.08804   5.11339   5.13737   5.18829
 Alpha virt. eigenvalues --    5.20718   5.21185   5.25072   5.35331   5.37719
 Alpha virt. eigenvalues --    5.38828   5.39782   5.43436   5.46740   5.49764
 Alpha virt. eigenvalues --    5.52100   5.53567   5.60713   5.71738   5.75425
 Alpha virt. eigenvalues --    5.86917   5.99166   6.16150   6.42827   6.59689
 Alpha virt. eigenvalues --    6.80953   6.83006   6.93936   7.00170   7.11271
 Alpha virt. eigenvalues --    7.17564   7.19699   7.28409   7.50308   7.62078
 Alpha virt. eigenvalues --    7.75132   7.78208  24.11741  24.37298  24.38188
 Alpha virt. eigenvalues --   24.67127  50.13438  50.23145
  Beta  occ. eigenvalues --  -19.68234 -19.62061 -10.68823 -10.59454 -10.57082
  Beta  occ. eigenvalues --  -10.56388  -1.23162  -1.12405  -0.89453  -0.80744
  Beta  occ. eigenvalues --   -0.70263  -0.65117  -0.58278  -0.57210  -0.56627
  Beta  occ. eigenvalues --   -0.52191  -0.48741  -0.48043  -0.43431  -0.42898
  Beta  occ. eigenvalues --   -0.42643  -0.37705  -0.36120
  Beta virt. eigenvalues --   -0.05092   0.00792   0.01982   0.03090   0.03774
  Beta virt. eigenvalues --    0.04220   0.05822   0.06121   0.06793   0.07949
  Beta virt. eigenvalues --    0.08794   0.09512   0.10444   0.12041   0.12711
  Beta virt. eigenvalues --    0.13321   0.15699   0.16707   0.18397   0.19442
  Beta virt. eigenvalues --    0.20242   0.20801   0.21910   0.23769   0.24092
  Beta virt. eigenvalues --    0.25708   0.26229   0.27131   0.28263   0.29760
  Beta virt. eigenvalues --    0.30535   0.32123   0.33375   0.33980   0.35912
  Beta virt. eigenvalues --    0.36749   0.40394   0.42543   0.44170   0.44440
  Beta virt. eigenvalues --    0.46415   0.49569   0.52004   0.53438   0.54376
  Beta virt. eigenvalues --    0.54937   0.55780   0.56510   0.57676   0.58571
  Beta virt. eigenvalues --    0.59613   0.61414   0.62803   0.64078   0.64729
  Beta virt. eigenvalues --    0.65434   0.67180   0.68985   0.71663   0.72403
  Beta virt. eigenvalues --    0.76429   0.78835   0.80448   0.83120   0.85393
  Beta virt. eigenvalues --    0.88514   0.88843   0.91914   0.95118   0.97041
  Beta virt. eigenvalues --    0.97889   1.00517   1.05062   1.05968   1.07715
  Beta virt. eigenvalues --    1.08211   1.09894   1.14661   1.14759   1.16299
  Beta virt. eigenvalues --    1.18099   1.18827   1.20250   1.21642   1.21866
  Beta virt. eigenvalues --    1.22564   1.24718   1.26955   1.29740   1.30492
  Beta virt. eigenvalues --    1.33759   1.33962   1.34048   1.37878   1.39756
  Beta virt. eigenvalues --    1.41629   1.43763   1.44814   1.45337   1.47764
  Beta virt. eigenvalues --    1.50256   1.52345   1.54235   1.56953   1.57790
  Beta virt. eigenvalues --    1.61909   1.67532   1.68349   1.72111   1.73848
  Beta virt. eigenvalues --    1.77435   1.81614   1.93094   2.01842   2.10754
  Beta virt. eigenvalues --    2.16422   2.27472   2.32926   2.40826   2.42904
  Beta virt. eigenvalues --    2.46522   2.50886   2.53052   2.58751   2.65476
  Beta virt. eigenvalues --    2.66488   2.68890   2.76044   2.76825   2.82160
  Beta virt. eigenvalues --    2.82364   2.84807   2.90200   2.95285   2.95817
  Beta virt. eigenvalues --    2.98002   2.99482   3.01841   3.03789   3.04711
  Beta virt. eigenvalues --    3.07591   3.08933   3.11634   3.12950   3.13721
  Beta virt. eigenvalues --    3.15725   3.21405   3.22726   3.23781   3.26991
  Beta virt. eigenvalues --    3.28517   3.29489   3.32633   3.35038   3.36178
  Beta virt. eigenvalues --    3.39302   3.41429   3.44875   3.46994   3.49215
  Beta virt. eigenvalues --    3.52432   3.53868   3.55868   3.57797   3.60909
  Beta virt. eigenvalues --    3.63502   3.66170   3.71646   3.73243   3.74225
  Beta virt. eigenvalues --    3.78964   3.81059   3.82251   3.82946   3.87488
  Beta virt. eigenvalues --    3.89032   3.94130   3.95416   3.98109   4.04728
  Beta virt. eigenvalues --    4.06357   4.09372   4.11511   4.12651   4.14426
  Beta virt. eigenvalues --    4.16410   4.20971   4.22921   4.24545   4.28235
  Beta virt. eigenvalues --    4.28791   4.35242   4.37172   4.39063   4.42351
  Beta virt. eigenvalues --    4.45702   4.48011   4.56554   4.64165   4.72169
  Beta virt. eigenvalues --    4.89007   4.98948   5.08906   5.11725   5.13832
  Beta virt. eigenvalues --    5.19838   5.21015   5.21598   5.25200   5.35567
  Beta virt. eigenvalues --    5.38085   5.42603   5.43833   5.44382   5.47650
  Beta virt. eigenvalues --    5.49838   5.52524   5.54136   5.60735   5.71737
  Beta virt. eigenvalues --    5.75437   5.86943   5.99187   6.16233   6.42842
  Beta virt. eigenvalues --    6.59681   6.80930   6.83272   6.94164   7.00228
  Beta virt. eigenvalues --    7.11314   7.17682   7.19749   7.28538   7.50355
  Beta virt. eigenvalues --    7.62154   7.75158   7.78228  24.12876  24.37417
  Beta virt. eigenvalues --   24.38518  24.67148  50.13422  50.23106
          Condensed to atoms (all electrons):
               1          2          3          4          5          6
     1  O    8.146662  -0.083563  -0.090948   0.141630   0.186733  -0.043743
     2  O   -0.083563   8.123988   0.014459  -0.061064   0.420462  -0.034100
     3  C   -0.090948   0.014459   5.635142  -0.102326  -0.118654   0.126667
     4  C    0.141630  -0.061064  -0.102326   5.009023  -0.100904   0.004929
     5  C    0.186733   0.420462  -0.118654  -0.100904   5.652073  -0.064243
     6  C   -0.043743  -0.034100   0.126667   0.004929  -0.064243   5.498775
     7  H    0.004692  -0.008677   0.469938  -0.001928  -0.076865  -0.025593
     8  H   -0.002671   0.004461   0.423744   0.006016  -0.057084  -0.028339
     9  H   -0.057176   0.004482   0.006034   0.419165   0.013067  -0.000695
    10  H   -0.033116  -0.007292  -0.005461   0.429177   0.002083  -0.000395
    11  H   -0.038237  -0.005721   0.000408   0.428669  -0.000194   0.001415
    12  H    0.000485  -0.000050  -0.022399   0.000464  -0.015027   0.413621
    13  H    0.001351   0.000528  -0.014339  -0.001410  -0.016648   0.403406
               7          8          9         10         11         12
     1  O    0.004692  -0.002671  -0.057176  -0.033116  -0.038237   0.000485
     2  O   -0.008677   0.004461   0.004482  -0.007292  -0.005721  -0.000050
     3  C    0.469938   0.423744   0.006034  -0.005461   0.000408  -0.022399
     4  C   -0.001928   0.006016   0.419165   0.429177   0.428669   0.000464
     5  C   -0.076865  -0.057084   0.013067   0.002083  -0.000194  -0.015027
     6  C   -0.025593  -0.028339  -0.000695  -0.000395   0.001415   0.413621
     7  H    0.498190  -0.025939   0.000010   0.000056  -0.000011  -0.007141
     8  H   -0.025939   0.516727  -0.000073   0.000062  -0.000054   0.003785
     9  H    0.000010  -0.000073   0.536796  -0.026513  -0.026556  -0.000000
    10  H    0.000056   0.000062  -0.026513   0.541035  -0.034382   0.000006
    11  H   -0.000011  -0.000054  -0.026556  -0.034382   0.537561  -0.000012
    12  H   -0.007141   0.003785  -0.000000   0.000006  -0.000012   0.483395
    13  H    0.003868  -0.005142   0.000013   0.000001  -0.000010  -0.027544
              13
     1  O    0.001351
     2  O    0.000528
     3  C   -0.014339
     4  C   -0.001410
     5  C   -0.016648
     6  C    0.403406
     7  H    0.003868
     8  H   -0.005142
     9  H    0.000013
    10  H    0.000001
    11  H   -0.000010
    12  H   -0.027544
    13  H    0.493346
          Atomic-Atomic Spin Densities.
               1          2          3          4          5          6
     1  O    0.008123  -0.000104   0.008619  -0.000095  -0.023361   0.007267
     2  O   -0.000104   0.028529   0.007895  -0.001272  -0.014697  -0.000513
     3  C    0.008619   0.007895   0.007292  -0.000670  -0.070942  -0.028266
     4  C   -0.000095  -0.001272  -0.000670   0.002179   0.001912  -0.000693
     5  C   -0.023361  -0.014697  -0.070942   0.001912   0.215132  -0.049678
     6  C    0.007267  -0.000513  -0.028266  -0.000693  -0.049678   1.139352
     7  H    0.000777   0.001056   0.013075   0.000044  -0.014016  -0.007952
     8  H    0.003279   0.000552   0.024462   0.000551  -0.023504  -0.017017
     9  H    0.000016  -0.000026  -0.000134   0.000165  -0.000008   0.000040
    10  H   -0.000779   0.000404  -0.000156   0.000136   0.000573  -0.000180
    11  H    0.000468  -0.000155   0.000270  -0.000294  -0.000342   0.000225
    12  H    0.000534   0.000114   0.007904   0.000152  -0.008639  -0.003691
    13  H    0.000453   0.000347   0.005635   0.000184  -0.006878  -0.003505
               7          8          9         10         11         12
     1  O    0.000777   0.003279   0.000016  -0.000779   0.000468   0.000534
     2  O    0.001056   0.000552  -0.000026   0.000404  -0.000155   0.000114
     3  C    0.013075   0.024462  -0.000134  -0.000156   0.000270   0.007904
     4  C    0.000044   0.000551   0.000165   0.000136  -0.000294   0.000152
     5  C   -0.014016  -0.023504  -0.000008   0.000573  -0.000342  -0.008639
     6  C   -0.007952  -0.017017   0.000040  -0.000180   0.000225  -0.003691
     7  H    0.010018   0.002637   0.000000  -0.000006  -0.000000   0.000833
     8  H    0.002637   0.022927   0.000006  -0.000020   0.000005   0.000272
     9  H    0.000000   0.000006   0.000009  -0.000054   0.000002   0.000000
    10  H   -0.000006  -0.000020  -0.000054   0.000265  -0.000022  -0.000001
    11  H   -0.000000   0.000005   0.000002  -0.000022   0.000109   0.000000
    12  H    0.000833   0.000272   0.000000  -0.000001   0.000000  -0.034769
    13  H    0.000129   0.001441   0.000001  -0.000002   0.000006   0.003030
              13
     1  O    0.000453
     2  O    0.000347
     3  C    0.005635
     4  C    0.000184
     5  C   -0.006878
     6  C   -0.003505
     7  H    0.000129
     8  H    0.001441
     9  H    0.000001
    10  H   -0.000002
    11  H    0.000006
    12  H    0.003030
    13  H   -0.034768
 Mulliken charges and spin densities:
               1          2
     1  O   -0.132100   0.005198
     2  O   -0.367913   0.022131
     3  C   -0.322265  -0.025017
     4  C   -0.171439   0.002298
     5  C    0.175201   0.005553
     6  C   -0.251705   1.035389
     7  H    0.169401   0.006594
     8  H    0.164508   0.015593
     9  H    0.131446   0.000020
    10  H    0.134739   0.000160
    11  H    0.137126   0.000272
    12  H    0.170419  -0.034260
    13  H    0.162581  -0.033929
 Sum of Mulliken charges =  -0.00000   1.00000
 Mulliken charges and spin densities with hydrogens summed into heavy atoms:
               1          2
     1  O   -0.132100   0.005198
     2  O   -0.367913   0.022131
     3  C    0.011645  -0.002830
     4  C    0.231872   0.002749
     5  C    0.175201   0.005553
     6  C    0.081295   0.967199
 APT charges:
               1
     1  O   -0.025145
     2  O   -0.331695
     3  C   -0.956460
     4  C   -1.243194
     5  C    0.351358
     6  C   -0.689384
     7  H    0.481127
     8  H    0.383993
     9  H    0.566096
    10  H    0.372308
    11  H    0.344489
    12  H    0.434853
    13  H    0.311654
 Sum of APT charges =  -0.00000
 APT charges with hydrogens summed into heavy atoms:
               1
     1  O   -0.025145
     2  O   -0.331695
     3  C   -0.091340
     4  C    0.039699
     5  C    0.351358
     6  C    0.057123
 Electronic spatial extent (au):  <R**2>=            631.8607
 Charge=             -0.0000 electrons
 Dipole moment (field-independent basis, Debye):
    X=             -0.0381    Y=             -1.7171    Z=             -0.2859  Tot=              1.7411
 Quadrupole moment (field-independent basis, Debye-Ang):
   XX=            -32.5127   YY=            -41.7066   ZZ=            -35.2945
   XY=              1.8173   XZ=             -0.6385   YZ=             -1.2761
 Traceless Quadrupole moment (field-independent basis, Debye-Ang):
   XX=              3.9919   YY=             -5.2020   ZZ=              1.2101
   XY=              1.8173   XZ=             -0.6385   YZ=             -1.2761
 Octapole moment (field-independent basis, Debye-Ang**2):
  XXX=            -24.0851  YYY=             -6.0107  ZZZ=             -0.6117  XYY=             -0.5947
  XXY=              2.7986  XXZ=              0.9403  XZZ=             -0.5608  YZZ=              0.5592
  YYZ=             -1.0303  XYZ=              0.6903
 Hexadecapole moment (field-independent basis, Debye-Ang**3):
 XXXX=           -595.5907 YYYY=           -175.2503 ZZZZ=            -96.4059 XXXY=             26.1778
 XXXZ=             -0.2408 YYYX=              5.8566 YYYZ=             -1.0314 ZZZX=             -2.9111
 ZZZY=              1.0430 XXYY=           -121.4453 XXZZ=           -109.3141 YYZZ=            -41.4395
 XXYZ=             -0.0124 YYXZ=              0.7444 ZZXY=              0.3774
 N-N= 2.351901940716D+02 E-N=-1.188240354734D+03  KE= 3.054358812292D+02
  Exact polarizability:   0.000   0.000   0.000   0.000   0.000   0.000
 Approx polarizability:  65.251  -0.092  70.982   0.153   2.323  57.316
                          Isotropic Fermi Contact Couplings
        Atom                 a.u.       MegaHertz       Gauss      10(-4) cm-1
     1  O(17)              0.00228      -1.38202      -0.49314      -0.46099
     2  O(17)              0.00443      -2.68321      -0.95744      -0.89502
     3  C(13)             -0.02557     -28.74046     -10.25531      -9.58679
     4  C(13)              0.00047       0.52936       0.18889       0.17658
     5  C(13)              0.07487      84.17022      30.03403      28.07616
     6  C(13)              0.27459     308.69388     110.14965     102.96919
     7  H(1)               0.00391      17.45918       6.22987       5.82376
     8  H(1)               0.00961      42.97516      15.33461      14.33497
     9  H(1)               0.00004       0.19474       0.06949       0.06496
    10  H(1)               0.00003       0.13143       0.04690       0.04384
    11  H(1)               0.00006       0.26989       0.09630       0.09003
    12  H(1)              -0.01149     -51.35497     -18.32473     -17.13017
    13  H(1)              -0.01188     -53.11105     -18.95134     -17.71594
 --------------------------------------------------------
       Center         ----  Spin Dipole Couplings  ----
                      3XX-RR        3YY-RR        3ZZ-RR
 --------------------------------------------------------
     1   Atom       -0.001424      0.005407     -0.003984
     2   Atom       -0.053213     -0.041601      0.094814
     3   Atom        0.012476     -0.010312     -0.002164
     4   Atom        0.004192     -0.002265     -0.001927
     5   Atom        0.044596     -0.027005     -0.017591
     6   Atom        0.535104     -0.342337     -0.192767
     7   Atom       -0.007470      0.000052      0.007418
     8   Atom       -0.001456     -0.008786      0.010242
     9   Atom        0.002029     -0.000923     -0.001106
    10   Atom        0.002538     -0.001204     -0.001334
    11   Atom        0.002992     -0.001647     -0.001345
    12   Atom       -0.003872      0.022320     -0.018448
    13   Atom       -0.017578      0.034012     -0.016433
 --------------------------------------------------------
                        XY            XZ            YZ
 --------------------------------------------------------
     1   Atom        0.007449     -0.013908     -0.018239
     2   Atom        0.001776     -0.052158     -0.017936
     3   Atom       -0.012011      0.005365     -0.001827
     4   Atom        0.000065     -0.000795      0.000080
     5   Atom       -0.022694     -0.037140      0.015400
     6   Atom       -0.437279     -0.599261      0.247661
     7   Atom       -0.005413      0.005646     -0.012221
     8   Atom        0.003605      0.012521      0.005153
     9   Atom        0.000650      0.000200      0.000094
    10   Atom       -0.000644      0.000728     -0.000077
    11   Atom       -0.000114     -0.000985      0.000002
    12   Atom        0.026407      0.005894      0.061805
    13   Atom        0.011683     -0.040101     -0.049602
 --------------------------------------------------------


 ---------------------------------------------------------------------------------
              Anisotropic Spin Dipole Couplings in Principal Axis System
 ---------------------------------------------------------------------------------

       Atom             a.u.   MegaHertz   Gauss  10(-4) cm-1        Axes

              Baa    -0.0210     1.518     0.542     0.506  0.4026  0.4408  0.8023
     1 O(17)  Bbb    -0.0061     0.441     0.157     0.147  0.7902 -0.6097 -0.0615
              Bcc     0.0271    -1.959    -0.699    -0.653  0.4620  0.6587 -0.5938
 
              Baa    -0.0703     5.084     1.814     1.696  0.9402  0.1370  0.3119
     2 O(17)  Bbb    -0.0431     3.118     1.113     1.040 -0.1651  0.9841  0.0655
              Bcc     0.1134    -8.202    -2.927    -2.736 -0.2980 -0.1131  0.9478
 
              Baa    -0.0155    -2.079    -0.742    -0.693  0.4001  0.9158 -0.0356
     3 C(13)  Bbb    -0.0036    -0.489    -0.175    -0.163 -0.2214  0.1343  0.9659
              Bcc     0.0191     2.568     0.916     0.857  0.8893 -0.3786  0.2565
 
              Baa    -0.0023    -0.308    -0.110    -0.103 -0.0473  0.9501 -0.3083
     4 C(13)  Bbb    -0.0020    -0.268    -0.096    -0.090  0.1178  0.3118  0.9428
              Bcc     0.0043     0.576     0.206     0.192  0.9919  0.0083 -0.1267
 
              Baa    -0.0390    -5.229    -1.866    -1.744  0.1428 -0.6686  0.7298
     5 C(13)  Bbb    -0.0306    -4.104    -1.464    -1.369  0.4766  0.6926  0.5414
              Bcc     0.0695     9.333     3.330     3.113  0.8675 -0.2705 -0.4175
 
              Baa    -0.5302   -71.148   -25.387   -23.733  0.4259 -0.1780  0.8871
     6 C(13)  Bbb    -0.5230   -70.187   -25.045   -23.412  0.3827  0.9239  0.0016
              Bcc     1.0532   141.336    50.432    47.144  0.8198 -0.3388 -0.4616
 
              Baa    -0.0104    -5.551    -1.981    -1.852  0.7934  0.5893  0.1528
     7 H(1)   Bbb    -0.0084    -4.477    -1.598    -1.493 -0.5386  0.5626  0.6272
              Bcc     0.0188    10.028     3.578     3.345  0.2837 -0.5799  0.7637
 
              Baa    -0.0103    -5.475    -1.954    -1.826 -0.3676  0.9299 -0.0092
     8 H(1)   Bbb    -0.0093    -4.984    -1.778    -1.663  0.7669  0.2976 -0.5686
              Bcc     0.0196    10.460     3.732     3.489  0.5260  0.2161  0.8225
 
              Baa    -0.0011    -0.613    -0.219    -0.204  0.0465 -0.4943  0.8680
     9 H(1)   Bbb    -0.0010    -0.550    -0.196    -0.183 -0.2115  0.8444  0.4922
              Bcc     0.0022     1.163     0.415     0.388  0.9763  0.2065  0.0653
 
              Baa    -0.0015    -0.787    -0.281    -0.263 -0.2088 -0.2255  0.9516
    10 H(1)   Bbb    -0.0013    -0.694    -0.248    -0.231  0.1133  0.9609  0.2526
              Bcc     0.0028     1.481     0.529     0.494  0.9714 -0.1606  0.1751
 
              Baa    -0.0017    -0.883    -0.315    -0.295  0.0689  0.9748  0.2120
    11 H(1)   Bbb    -0.0016    -0.828    -0.296    -0.276  0.2011 -0.2217  0.9541
              Bcc     0.0032     1.711     0.611     0.571  0.9771 -0.0231 -0.2114
 
              Baa    -0.0652   -34.769   -12.406   -11.598  0.1855 -0.6037  0.7753
    12 H(1)   Bbb    -0.0098    -5.213    -1.860    -1.739  0.9346 -0.1353 -0.3290
              Bcc     0.0749    39.982    14.267    13.337  0.3036  0.7856  0.5391
 
              Baa    -0.0660   -35.229   -12.571   -11.751  0.5589  0.3150  0.7670
    13 H(1)   Bbb    -0.0095    -5.043    -1.799    -1.682  0.7584 -0.5682 -0.3193
              Bcc     0.0755    40.271    14.370    13.433  0.3353  0.7602 -0.5565
 

 ---------------------------------------------------------------------------------

 No NMR shielding tensors so no spin-rotation constants.
 Leave Link  601 at Tue Apr  9 02:04:04 2019, MaxMem=   671088640 cpu:               8.8 elap:               0.5
 (Enter /shared/centos7/gaussian/g16/l701.exe)
 SCFChk:  SCF convergence  4.88D-09 required  1.00D-08
 ... and contract with generalized density number  0.
 Compute integral second derivatives.
 Entering OneElI...
 Calculate overlap and kinetic energy integrals
    NBasis = 297  MinDer = 2  MaxDer = 2
 Requested accuracy = 0.1000D-12
 PrmmSu-InSpLW:  IPartL=    0 NPrtUS=   20 NPrtUL=    1 DoSpLW=F IThBeg=    0 IThEnd=   19 NThAct=   20.
 PrsmSu:  NPrtUS=  20 ThrOK=T IAlg=1 NPAlg=1 LenDen=           0 ISkipM=0 DoSpLW=F IThBeg=    0 IThEnd=   19.
 Prism:   IPart=     0 DynPar=F LinDyn=F Incr=           1.
 PRISM was handed    33455238 working-precision words and  3479 shell-pairs
 PRISM was handed    33455238 working-precision words and  3479 shell-pairs
 PRISM was handed    33455238 working-precision words and  3479 shell-pairs
 PRISM was handed    33455238 working-precision words and  3479 shell-pairs
 PRISM was handed    33455238 working-precision words and  3479 shell-pairs
 PRISM was handed    33455238 working-precision words and  3479 shell-pairs
 PRISM was handed    33455238 working-precision words and  3479 shell-pairs
 PRISM was handed    33455238 working-precision words and  3479 shell-pairs
 PRISM was handed    33455238 working-precision words and  3479 shell-pairs
 PRISM was handed    33455238 working-precision words and  3479 shell-pairs
 PRISM was handed    33455238 working-precision words and  3479 shell-pairs
 PRISM was handed    33455238 working-precision words and  3479 shell-pairs
 PRISM was handed    33455238 working-precision words and  3479 shell-pairs
 PRISM was handed    33455238 working-precision words and  3479 shell-pairs
 PRISM was handed    33455238 working-precision words and  3479 shell-pairs
 PRISM was handed    33455238 working-precision words and  3479 shell-pairs
 PRISM was handed    33455238 working-precision words and  3479 shell-pairs
 PRISM was handed    33455238 working-precision words and  3479 shell-pairs
 PRISM was handed    33455238 working-precision words and  3479 shell-pairs
 PRISM was handed    33455238 working-precision words and  3479 shell-pairs
 IPart= 10 NShTot=         169 NBatch=          32 AvBLen=         5.3
 IPart=  6 NShTot=         181 NBatch=          39 AvBLen=         4.6
 IPart= 19 NShTot=         151 NBatch=          30 AvBLen=         5.0
 IPart=  3 NShTot=         193 NBatch=          49 AvBLen=         3.9
 IPart=  8 NShTot=         172 NBatch=          35 AvBLen=         4.9
 IPart=  0 NShTot=         206 NBatch=          58 AvBLen=         3.6
 IPart= 12 NShTot=         166 NBatch=          31 AvBLen=         5.4
 IPart= 11 NShTot=         169 NBatch=          32 AvBLen=         5.3
 IPart=  9 NShTot=         170 NBatch=          33 AvBLen=         5.2
 IPart=  4 NShTot=         189 NBatch=          47 AvBLen=         4.0
 IPart=  7 NShTot=         179 NBatch=          37 AvBLen=         4.8
 IPart=  2 NShTot=         196 NBatch=          51 AvBLen=         3.8
 IPart=  5 NShTot=         185 NBatch=          43 AvBLen=         4.3
 IPart= 15 NShTot=         161 NBatch=          30 AvBLen=         5.4
 IPart=  1 NShTot=         202 NBatch=          56 AvBLen=         3.6
 IPart= 13 NShTot=         165 NBatch=          31 AvBLen=         5.3
 IPart= 18 NShTot=         153 NBatch=          30 AvBLen=         5.1
 IPart= 17 NShTot=         154 NBatch=          30 AvBLen=         5.1
 IPart= 16 NShTot=         155 NBatch=          30 AvBLen=         5.2
 IPart= 14 NShTot=         163 NBatch=          30 AvBLen=         5.4
 PrSmSu:  NxtVal=             21.
 Entering OneElI...
 Calculate potential energy integrals
    NBasis = 297  MinDer = 2  MaxDer = 2
 Requested accuracy = 0.1000D-12
 PrmmSu-InSpLW:  IPartL=    0 NPrtUS=   20 NPrtUL=    1 DoSpLW=F IThBeg=    0 IThEnd=   19 NThAct=   20.
 PrsmSu:  NPrtUS=  20 ThrOK=T IAlg=1 NPAlg=1 LenDen=           0 ISkipM=0 DoSpLW=F IThBeg=    0 IThEnd=   19.
 Prism:   IPart=     0 DynPar=F LinDyn=F Incr=          21.
 PRISM was handed    33469530 working-precision words and  3252 shell-pairs
 PRISM was handed    33469530 working-precision words and  3252 shell-pairs
 PRISM was handed    33469530 working-precision words and  3252 shell-pairs
 PRISM was handed    33469530 working-precision words and  3252 shell-pairs
 PRISM was handed    33469530 working-precision words and  3252 shell-pairs
 PRISM was handed    33469530 working-precision words and  3252 shell-pairs
 PRISM was handed    33469530 working-precision words and  3252 shell-pairs
 PRISM was handed    33469530 working-precision words and  3252 shell-pairs
 PRISM was handed    33469530 working-precision words and  3252 shell-pairs
 PRISM was handed    33469530 working-precision words and  3252 shell-pairs
 PRISM was handed    33469530 working-precision words and  3252 shell-pairs
 PRISM was handed    33469530 working-precision words and  3252 shell-pairs
 PRISM was handed    33469530 working-precision words and  3252 shell-pairs
 PRISM was handed    33469530 working-precision words and  3252 shell-pairs
 PRISM was handed    33469530 working-precision words and  3252 shell-pairs
 PRISM was handed    33469530 working-precision words and  3252 shell-pairs
 PRISM was handed    33469530 working-precision words and  3252 shell-pairs
 PRISM was handed    33469530 working-precision words and  3252 shell-pairs
 PRISM was handed    33469530 working-precision words and  3252 shell-pairs
 PRISM was handed    33469530 working-precision words and  3252 shell-pairs
 IPart= 19 NShTot=        1846 NBatch=         142 AvBLen=        13.0
 IPart= 10 NShTot=        2054 NBatch=         158 AvBLen=        13.0
 IPart= 12 NShTot=        1963 NBatch=         151 AvBLen=        13.0
 IPart= 13 NShTot=        1950 NBatch=         150 AvBLen=        13.0
 IPart= 11 NShTot=        2015 NBatch=         155 AvBLen=        13.0
 IPart= 15 NShTot=        1911 NBatch=         147 AvBLen=        13.0
 IPart=  8 NShTot=        2119 NBatch=         163 AvBLen=        13.0
 IPart=  9 NShTot=        2080 NBatch=         160 AvBLen=        13.0
 IPart=  7 NShTot=        2145 NBatch=         165 AvBLen=        13.0
 IPart=  4 NShTot=        2327 NBatch=         179 AvBLen=        13.0
 IPart=  5 NShTot=        2262 NBatch=         174 AvBLen=        13.0
 IPart=  6 NShTot=        2197 NBatch=         169 AvBLen=        13.0
 IPart=  2 NShTot=        2418 NBatch=         186 AvBLen=        13.0
 IPart=  3 NShTot=        2379 NBatch=         183 AvBLen=        13.0
 IPart= 16 NShTot=        1911 NBatch=         147 AvBLen=        13.0
 IPart=  0 NShTot=        2535 NBatch=         195 AvBLen=        13.0
 IPart= 14 NShTot=        1924 NBatch=         148 AvBLen=        13.0
 IPart= 18 NShTot=        1885 NBatch=         145 AvBLen=        13.0
 IPart= 17 NShTot=        1885 NBatch=         145 AvBLen=        13.0
 IPart=  1 NShTot=        2470 NBatch=         190 AvBLen=        13.0
 PrSmSu:  NxtVal=            421.
 Polarizability after L701:
                1             2             3 
      1  0.000000D+00
      2  0.000000D+00  0.000000D+00
      3  0.000000D+00  0.000000D+00  0.000000D+00
 Dipole Derivatives after L701:
                 1             2             3             4             5 
      1   0.305737D+00 -0.125974D+00 -0.175580D+00 -0.335916D+00 -0.498395D-02
      2   0.780173D-01 -0.156653D+00  0.832828D-02 -0.912484D-01 -0.112670D+00
      3  -0.601113D-01  0.592265D-01 -0.224519D+00 -0.473062D-01 -0.222392D-02
                 6             7             8             9            10 
      1  -0.612778D-01 -0.791431D+00 -0.177613D-01  0.112348D+01 -0.210800D+01
      2   0.118375D+00 -0.894406D-01 -0.909071D+00 -0.147369D+00 -0.329501D+00
      3  -0.546500D+00  0.288169D+00 -0.984149D-01 -0.116888D+01  0.307605D-01
                11            12            13            14            15 
      1   0.231541D+00  0.368486D+00  0.390586D+00 -0.538057D-02  0.298407D-02
      2  -0.718133D+00  0.118497D+00 -0.515550D-01 -0.151216D+00 -0.148013D+00
      3   0.133161D-01 -0.903455D+00 -0.165935D-01 -0.403881D-01  0.814704D+00
                16            17            18            19            20 
      1  -0.386697D+00 -0.336044D+00 -0.144971D+01  0.590773D+00  0.636399D+00
      2  -0.269522D+00 -0.828618D+00  0.314177D+00  0.163297D+00  0.419751D+00
      3  -0.403940D-01  0.205043D-01 -0.852838D+00 -0.260920D+00 -0.398507D+00
                21            22            23            24            25 
      1  -0.438419D+00  0.141038D+00 -0.483353D+00 -0.367138D+00  0.101925D+01
      2  -0.166664D+00  0.211947D-01  0.512031D+00  0.260127D+00  0.363932D+00
      3   0.432856D+00  0.262021D-01  0.465484D+00  0.498911D+00 -0.288283D-01
                26            27            28            29            30 
      1   0.945036D+00  0.135605D+00  0.553244D+00 -0.895269D+00  0.543133D+00
      2   0.561128D+00  0.807046D-01 -0.662175D-01  0.312597D+00 -0.128834D+00
      3  -0.247078D-02  0.117913D+00  0.415551D-01 -0.150924D+00  0.251081D+00
                31            32            33            34            35 
      1   0.217419D+00 -0.264301D+00 -0.920465D+00  0.564210D+00  0.104262D+01
      2  -0.546223D-02  0.116209D+00 -0.377683D-01  0.789511D-01  0.302543D+00
      3   0.495829D-02  0.145512D+00  0.699840D+00  0.204595D+00  0.420414D+00
                36            37            38            39 
      1   0.695005D+00 -0.160217D+00 -0.722526D+00  0.543889D+00
      2   0.779797D-01  0.197555D+00  0.652101D+00 -0.349540D+00
      3   0.437807D+00 -0.142087D+00 -0.431528D+00  0.443079D+00
 Hessian after L701:
                1             2             3             4             5 
      1  0.354509D+01
      2 -0.442633D+01  0.923256D+01
      3  0.195642D+01 -0.532081D+00  0.158299D+02
      4  0.531782D-01  0.568871D+00  0.129176D+00  0.124921D+02
      5  0.660786D+00  0.519113D+00 -0.939476D-01  0.346095D+01 -0.456911D+00
      6  0.146039D+00 -0.582507D-01  0.126603D-01  0.163316D+01 -0.446792D+01
      7  0.613012D+00  0.204507D+00 -0.132360D+00  0.544655D+00 -0.650005D+00
      8  0.211044D+00 -0.634357D-01 -0.926184D-02 -0.552332D+00 -0.143012D-01
      9 -0.276035D-02  0.302372D-01 -0.122908D+00 -0.242155D+00  0.978760D-01
     10 -0.660865D+00 -0.174142D+01 -0.200484D+01  0.116439D+00  0.416290D+00
     11 -0.170837D+01 -0.646088D+01  0.581667D+00  0.536612D+00  0.239721D+00
     12 -0.199690D+01  0.589046D+00 -0.637225D+01  0.358370D-02  0.195186D-01
     13 -0.390819D+01  0.526083D+01 -0.352674D+00 -0.136287D+02 -0.377610D+01
     14  0.518999D+01 -0.333566D+01  0.152015D+00 -0.382525D+01 -0.330220D+00
     15 -0.373017D+00  0.120285D+00 -0.972760D+01 -0.149728D+01  0.445960D+01
     16  0.338728D+00 -0.519294D-01  0.191183D+00  0.172007D+00 -0.230395D+00
     17  0.222114D-01 -0.166844D+00  0.178377D-01 -0.250686D+00 -0.116812D-01
     18  0.104663D+00 -0.306015D-02 -0.907497D-01  0.427417D-01 -0.280284D-01
     19  0.779586D-01  0.816157D-01 -0.536478D-01  0.501417D-01 -0.264643D-01
     20  0.972180D-01  0.149474D-01 -0.390759D-01  0.457500D-01 -0.515817D-01
     21 -0.736431D-01 -0.439869D-01 -0.140001D-01 -0.618440D-01  0.230179D-01
     22  0.329088D-01 -0.383819D-01 -0.443388D-01 -0.315086D-01 -0.510099D-01
     23 -0.102544D+00 -0.359701D-01  0.482557D-01 -0.660394D-01  0.103088D+00
     24 -0.996615D-01  0.243707D-01  0.142576D-03 -0.461755D-01  0.981488D-01
     25 -0.966552D-01  0.538222D-01  0.744879D-01  0.469958D-01  0.107790D+00
     26  0.101302D+00  0.159029D+00  0.156973D-01  0.768266D-01  0.758695D-01
     27  0.851713D-01  0.228197D-01  0.554994D-01  0.252710D-02  0.559570D-02
     28  0.156733D-01 -0.248557D-01  0.158437D+00  0.887226D-01  0.893506D-01
     29 -0.893711D-01  0.158322D+00 -0.158336D+00 -0.306593D-02 -0.680490D-01
     30  0.160188D+00 -0.169392D+00  0.947900D-01  0.411134D-01  0.289709D-01
     31 -0.943287D-01  0.100663D+00  0.231978D-01  0.381309D-01  0.648434D-01
     32  0.577064D-01  0.901967D-02  0.280850D-01  0.458905D-01 -0.176549D-01
     33 -0.137470D-01  0.192882D-01  0.346987D+00 -0.810819D-01 -0.796838D-01
     34  0.451120D-01  0.219785D-01  0.217291D-01  0.615093D-01 -0.428310D-01
     35  0.470072D-01 -0.252222D-02  0.144849D-01  0.171298D-01 -0.426949D-01
     36  0.371122D-01  0.117484D-01 -0.565524D-02  0.487948D-01 -0.243199D-01
     37  0.383740D-01 -0.937015D-02  0.332270D-01 -0.366127D-02 -0.232057D-01
     38 -0.606499D-01 -0.276785D-01 -0.253409D-01 -0.546522D-01  0.553037D-01
     39  0.701378D-01 -0.110242D-01 -0.678557D-02  0.274304D-01 -0.388329D-01
                6             7             8             9            10 
      6  0.154297D+02
      7 -0.341747D+00  0.106166D+02
      8  0.171266D+00  0.963062D+00  0.155932D+02
      9 -0.169805D+00  0.352375D+00  0.190450D+00  0.144502D+02
     10 -0.103169D-01  0.969466D-01 -0.139749D-01 -0.321009D-01  0.959670D+01
     11 -0.739420D-04  0.123912D-01 -0.232137D-01 -0.371815D-02  0.733998D+00
     12 -0.333145D+00 -0.432178D-01 -0.140950D-02 -0.124063D-01  0.159855D+01
     13 -0.147187D+01 -0.106053D+01 -0.112576D+01 -0.133027D+01  0.552549D+00
     14  0.442223D+01 -0.108261D+01 -0.600763D+01  0.205661D+00  0.217242D+00
     15 -0.146904D+02 -0.130957D+01  0.219700D+00 -0.565988D+01 -0.503048D-01
     16  0.106667D+00 -0.363057D+01 -0.581010D+00  0.213813D+01  0.896893D-01
     17 -0.847705D-01 -0.573704D+00 -0.489217D+01 -0.874506D+00 -0.517124D-02
     18 -0.137957D+00  0.208796D+01 -0.858591D+00 -0.242944D+01 -0.548404D-02
     19 -0.506194D-01 -0.338010D+01  0.103553D+01 -0.753521D+00  0.132279D-02
     20 -0.288015D-01  0.914123D+00 -0.247737D+01 -0.113310D+01  0.526602D-02
     21  0.144359D-01 -0.706665D+00 -0.120981D+01 -0.311828D+01 -0.358286D-02
[...]
 ! R1    R(1,4)                  1.4259         -DE/DX =    0.0                 !
 ! R2    R(1,5)                  1.3401         -DE/DX =    0.0                 !
 ! R3    R(2,5)                  1.1986         -DE/DX =    0.0                 !
 ! R4    R(3,5)                  1.5188         -DE/DX =    0.0                 !
 ! R5    R(3,6)                  1.4898         -DE/DX =    0.0                 !
 ! R6    R(3,7)                  1.0871         -DE/DX =    0.0                 !
 ! R7    R(3,8)                  1.0909         -DE/DX =    0.0                 !
 ! R8    R(4,9)                  1.0847         -DE/DX =    0.0                 !
 ! R9    R(4,10)                 1.0881         -DE/DX =    0.0                 !
 ! R10   R(4,11)                 1.0882         -DE/DX =    0.0                 !
 ! R11   R(6,12)                 1.0784         -DE/DX =    0.0                 !
 ! R12   R(6,13)                 1.0783         -DE/DX =    0.0                 !
 ! A1    A(4,1,5)              115.3007         -DE/DX =    0.0                 !
 ! A2    A(5,3,6)              110.2115         -DE/DX =    0.0                 !
 ! A3    A(5,3,7)              106.8772         -DE/DX =    0.0                 !
 ! A4    A(5,3,8)              107.8956         -DE/DX =    0.0                 !
 ! A5    A(6,3,7)              111.5406         -DE/DX =    0.0                 !
 ! A6    A(6,3,8)              110.6445         -DE/DX =    0.0                 !
 ! A7    A(7,3,8)              109.5349         -DE/DX =    0.0                 !
 ! A8    A(1,4,9)              105.9804         -DE/DX =    0.0                 !
 ! A9    A(1,4,10)             110.3354         -DE/DX =    0.0                 !
 ! A10   A(1,4,11)             110.2716         -DE/DX =    0.0                 !
 ! A11   A(9,4,10)             110.6437         -DE/DX =    0.0                 !
 ! A12   A(9,4,11)             110.669          -DE/DX =    0.0                 !
 ! A13   A(10,4,11)            108.9229         -DE/DX =    0.0                 !
 ! A14   A(1,5,2)              123.5286         -DE/DX =    0.0                 !
 ! A15   A(1,5,3)              111.1569         -DE/DX =    0.0                 !
 ! A16   A(2,5,3)              125.2952         -DE/DX =    0.0                 !
 ! A17   A(3,6,12)             120.0883         -DE/DX =    0.0                 !
 ! A18   A(3,6,13)             120.0589         -DE/DX =    0.0                 !
 ! A19   A(12,6,13)            118.6667         -DE/DX =    0.0                 !
 ! D1    D(5,1,4,9)           -179.5914         -DE/DX =    0.0                 !
 ! D2    D(5,1,4,10)            60.5912         -DE/DX =    0.0                 !
 ! D3    D(5,1,4,11)           -59.7782         -DE/DX =    0.0                 !
 ! D4    D(4,1,5,2)             -1.0583         -DE/DX =    0.0                 !
 ! D5    D(4,1,5,3)            177.4171         -DE/DX =    0.0                 !
 ! D6    D(6,3,5,1)            -73.0487         -DE/DX =    0.0                 !
 ! D7    D(6,3,5,2)            105.3942         -DE/DX =    0.0                 !
 ! D8    D(7,3,5,1)            165.5817         -DE/DX =    0.0                 !
 ! D9    D(7,3,5,2)            -15.9754         -DE/DX =    0.0                 !
 ! D10   D(8,3,5,1)             47.8609         -DE/DX =    0.0                 !
 ! D11   D(8,3,5,2)           -133.6962         -DE/DX =    0.0                 !
 ! D12   D(5,3,6,12)           -87.8991         -DE/DX =    0.0                 !
 ! D13   D(5,3,6,13)            79.4925         -DE/DX =    0.0                 !
 ! D14   D(7,3,6,12)            30.6508         -DE/DX =    0.0                 !
 ! D15   D(7,3,6,13)          -161.9577         -DE/DX =    0.0                 !
 ! D16   D(8,3,6,12)           152.8508         -DE/DX =    0.0                 !
 ! D17   D(8,3,6,13)           -39.7577         -DE/DX =    0.0                 !
 --------------------------------------------------------------------------------
 GradGradGradGradGradGradGradGradGradGradGradGradGradGradGradGradGradGrad

 Leave Link  103 at Tue Apr  9 02:24:18 2019, MaxMem=   671088640 cpu:               0.3 elap:               0.0
 (Enter /shared/centos7/gaussian/g16/l9999.exe)

 ----------------------------------------------------------------------

 Electric dipole moment (input orientation):
 (Debye = 10**-18 statcoulomb cm , SI units = C m)
                  (au)            (Debye)         (10**-30 SI)
   Tot        0.708205D+00      0.180008D+01      0.600441D+01
   x          0.432594D+00      0.109954D+01      0.366769D+01
   y          0.138099D+00      0.351013D+00      0.117085D+01
   z          0.543456D+00      0.138133D+01      0.460761D+01

 Dipole polarizability, Alpha (input orientation).
 (esu units = cm**3 , SI units = C**2 m**2 J**-1)
 Alpha(0;0):
               (au)            (10**-24 esu)      (10**-40 SI)
   iso        0.548731D+02      0.813136D+01      0.904736D+01
   aniso      0.157610D+02      0.233553D+01      0.259863D+01
   xx         0.600978D+02      0.890558D+01      0.990880D+01
   yx         0.118739D+01      0.175954D+00      0.195775D+00
   yy         0.462173D+02      0.684869D+01      0.762020D+01
   zx        -0.482087D+01     -0.714379D+00     -0.794853D+00
   zy        -0.107476D+01     -0.159263D+00     -0.177205D+00
   zz         0.583042D+02      0.863980D+01      0.961307D+01

 ----------------------------------------------------------------------

 Dipole orientation:
     8          1.00524959         -0.04123887          2.95699088
     8          0.65238565         -0.10447902         -1.25621152
     6         -3.12101116          0.27590078          1.29253379
     6          3.66566178         -0.36909606          2.68169384
     6         -0.30462756          0.04336338          0.79129944
     6         -4.14432103         -2.16749941          2.24555436
     1         -3.99971881          0.82055550         -0.48259916
     1         -3.39530779          1.77130354          2.68487627
     1          4.42886117         -0.41118651          4.58360907
     1          4.47101122          1.19128992          1.61175935
     1          4.06860915         -2.12984543          1.69876699
     1         -4.79284306         -3.58498263          0.93293845
     1         -3.89126611         -2.68736033          4.19953938

 Electric dipole moment (dipole orientation):
 (Debye = 10**-18 statcoulomb cm , SI units = C m)
                  (au)            (Debye)         (10**-30 SI)
   Tot        0.708205D+00      0.180008D+01      0.600441D+01
   x          0.000000D+00      0.000000D+00      0.000000D+00
   y          0.000000D+00      0.000000D+00      0.000000D+00
   z          0.708205D+00      0.180008D+01      0.600441D+01

 Dipole polarizability, Alpha (dipole orientation).
 (esu units = cm**3 , SI units = C**2 m**2 J**-1)
 Alpha(0;0):
               (au)            (10**-24 esu)      (10**-40 SI)
   iso        0.548731D+02      0.813136D+01      0.904736D+01
   aniso      0.157610D+02      0.233553D+01      0.259863D+01
   xx         0.637970D+02      0.945373D+01      0.105187D+02
   yx         0.279506D+01      0.414186D+00      0.460844D+00
   yy         0.468668D+02      0.694494D+01      0.772728D+01
   zx         0.220857D+00      0.327277D-01      0.364145D-01
   zy        -0.162857D+01     -0.241330D+00     -0.268515D+00
   zz         0.539557D+02      0.799540D+01      0.889609D+01

 ----------------------------------------------------------------------

 Test job not archived.
 1\1\GINC-C0211\Freq\UM062X\6-311+G(2df,2p)\C4H7O2(2)\UNDERKOFFLER.C\09
 -Apr-2019\0\\#P Geom=AllCheck Guess=TCheck SCRF=Check Test GenChk UM06
 2X/6-311+G(2df,2p) Freq\\Gaussian input prepared by ASE\\0,2\O,1.37693
 61603,0.247924691,0.8800822094\O,-0.1299842973,-0.2069921117,-0.710212
 0012\C,-0.8949428992,0.3875414816,1.5052274149\C,2.4102600188,-0.04512
 51084,-0.057825468\C,0.1270618277,0.1149707546,0.4153201841\C,-0.92694
 09329,-0.7427955245,2.4751309327\H,-1.8549845487,0.5177232793,1.012218
 8039\H,-0.6127240774,1.3153060477,2.0049780032\H,3.3451390749,0.102118
 8943,0.4721439683\H,2.3449686574,0.6237031861,-0.9136343726\H,2.323549
 9684,-1.072625042,-0.4055263396\H,-1.5714085913,-1.5890758748,2.298005
 3982\H,-0.1711571533,-0.8193705945,3.24044359\\Version=EM64L-G16RevA.0
 3\State=2-A\HF=-307.0034966\S2=0.755528\S2-1=0.\S2A=0.750024\RMSD=5.19
 1e-09\RMSF=5.971e-07\ZeroPoint=0.1048426\Thermal=0.1124384\Dipole=0.43
 25942,0.1380991,0.5434563\DipoleDeriv=-1.6661172,-0.0633453,0.1106121,
 -0.0053237,-0.3024434,-0.1106467,0.0316747,-0.0943876,-0.6641228,-0.73
 11508,-0.023603,0.0129506,-0.0705788,-0.3648388,-0.2442991,-0.2603926,
 -0.1180528,-1.1630468,-0.0751031,-0.0233723,0.1573344,-0.0374815,0.063
 9597,0.0597885,0.1542997,0.0154325,-0.1921208,0.6718062,-0.031797,-0.1
 687426,-0.0910334,0.2794594,0.0358851,-0.3062626,0.022566,0.4074576,1.
 8462401,0.1258885,-0.1058346,0.1230809,0.2613742,0.3435264,0.3161955,0
 .2121323,1.4773369,-0.1234682,0.1356307,0.2045822,0.19611,0.0236778,-0
 .1960879,0.1542989,-0.1175088,-0.0484487,-0.0266199,0.0291606,-0.03148
 4,0.0056193,0.0562491,0.0185805,-0.0477221,0.0295408,0.0155075,0.05765
 23,-0.046823,-0.0102567,-0.031473,-0.0448749,-0.0196551,-0.0033439,-0.
 0331881,0.0515549,-0.0799587,-0.0095532,-0.0178506,-0.0188627,0.081424
 5,-0.0198471,-0.0749533,-0.0174047,0.0206757,0.0100075,0.0444644,-0.01
 91631,0.0108004,-0.00638,0.0744664,0.0829424,0.056159,-0.028258,0.0089
 951,-0.0560279,0.0104483,0.0343315,-0.0719698,-0.0445731,0.0728815,-0.
 0182381,0.0355981,0.0670298,-0.0659732,-0.0465989,-0.0728482,-0.011078
 1,0.0540778,-0.0546989,0.0124406,0.053715,0.040687,-0.0146491,-0.09599
 7,-0.0423408,0.0354401,0.0487841,-0.0649192,0.0505088,0.0341514\Polar=
 60.0978392,1.1873931,46.217281,-4.8208663,-1.0747632,58.3042355\Quadru
 pole=2.716949,0.4482059,-3.1651549,-0.4385735,-2.5040484,-0.7465451\PG
 =C01 [X(C4H7O2)]\NImag=0\\0.54654320,-0.00668221,0.10436255,-0.0183827
 7,0.07955878,0.34988822,-0.03764136,-0.02017435,-0.07136201,0.15231605
 ,-0.02127997,0.02450146,-0.02121121,0.04782241,0.09361533,-0.07656387,
 -0.02135444,-0.04337582,0.16739878,0.21587829,0.79147805,-0.04421712,0
 .00686489,0.02588985,0.01104205,0.00026526,-0.00250002,0.55328452,-0.0
 0289111,0.00926702,-0.00140903,0.00703181,0.01958401,-0.01567572,0.017
 31592,0.51783041,-0.00193694,0.00016048,0.00847437,0.02042731,-0.01629
 630,-0.04372780,0.10397803,0.02960750,0.47620514,-0.14438407,0.0156296
 3,0.05060573,0.00594518,0.00348957,0.01289357,-0.00111745,-0.00040956,
 -0.00426868,0.55990610,0.02429389,-0.07601223,-0.02772043,-0.00284376,
 -0.00652017,-0.00097095,-0.00145332,0.00426255,-0.00153089,0.02484557,
 0.58969566,0.07757968,-0.02768279,-0.15828107,-0.00886906,-0.00052814,
 -0.00909293,-0.00420233,-0.00149320,0.00109088,0.07984341,-0.01374805,
 0.55181397,-0.26100373,-0.00751308,-0.02908147,-0.13319254,-0.02820947
 ,-0.09998453,-0.12549327,0.02450879,0.04298645,-0.06756967,0.00394606,
 0.01204889,0.59269244,-0.01279111,-0.07395775,-0.01631391,-0.03317284,
 -0.13208185,-0.17602306,0.01114520,-0.08581900,-0.00884798,0.00578185,
 0.00349403,0.00502555,0.01778123,0.29769303,-0.03959498,-0.01786826,-0
 .12775953,-0.11216151,-0.17720435,-0.69840336,0.04937717,-0.02337554,-
 0.10977083,0.01790435,0.00549568,0.02087055,0.06267240,0.20616879,0.95
 438958,-0.00256714,0.00037322,0.00079093,0.00051722,0.00210093,0.00084
 343,-0.06707612,-0.01781097,-0.01670370,0.00076728,0.00048189,-0.00045
 805,0.00016611,-0.01700090,0.01023352,0.39442366,0.00309289,0.00071009
 ,-0.00020944,0.00165856,-0.00133148,-0.00473207,-0.01135589,-0.1624755
 1,0.08424432,-0.00044045,0.00018546,0.00040893,-0.01359153,0.00014093,
 0.01415023,0.17682155,0.46296618,-0.00269747,0.00049125,0.00110960,0.0
 0021138,-0.00329881,0.00181722,-0.02181968,0.09174449,-0.12700897,-0.0
 0005377,-0.00101713,0.00000540,0.01063433,0.01801497,-0.02753642,0.232
 20965,-0.11178354,0.38980374,-0.00423291,0.00152144,0.00460601,0.00384
 631,-0.00113539,-0.00064592,-0.26270893,0.02747494,-0.10871653,-0.0001
 6909,-0.00033422,-0.00078447,-0.02337996,0.00127728,-0.01375417,0.0042
 8495,0.00038307,0.00162431,0.28603280,0.00030663,0.00072773,-0.0005194
 5,-0.00065773,-0.00027051,0.00021143,0.02619787,-0.05548833,0.00991350
 ,0.00023835,0.00052882,0.00002049,0.00562048,-0.00171791,0.00274466,0.
 02179578,-0.00177924,0.01382863,-0.02919388,0.05450789,0.00466585,-0.0
 0090601,-0.00356089,-0.00090716,0.00097379,0.00107321,-0.11604897,0.01
 098732,-0.10153515,0.00080713,0.00040834,0.00047305,0.02249350,-0.0033
 8894,0.01023101,-0.01872762,0.00335769,-0.01377438,0.11741180,-0.01736
 791,0.11342715,-0.00099529,-0.00140118,0.00007559,-0.00187686,-0.00164
 410,0.00439665,-0.06901225,-0.05584446,-0.03779402,0.00027761,-0.00007
 890,0.00009528,0.00703226,0.02172838,0.00927460,-0.00029840,-0.0035048
 2,0.00064854,-0.00438956,-0.02410497,-0.01132342,0.06803170,-0.0002867
 8,0.00087895,0.00104477,0.00118962,0.00001151,-0.00021126,-0.05470698,
 -0.23503090,-0.10808048,0.00042686,0.00031601,-0.00020754,-0.00345388,
 -0.00592971,-0.00490952,-0.01001334,-0.02245231,-0.00643260,0.00022597
 ,0.00554360,0.00293759,0.06480533,0.25752545,-0.00079767,0.00178267,0.
 00134022,0.00480070,0.00144287,-0.00476139,-0.03574913,-0.10697978,-0.
 09998669,0.00023974,0.00059297,-0.00028522,-0.00933284,-0.02358339,-0.
 01346554,0.00914700,0.02118085,0.00990951,-0.00135139,-0.01016735,-0.0
 0610295,0.03373884,0.11363523,0.11450182,-0.03298725,-0.00176160,-0.00
 692046,0.00052347,-0.00020332,-0.00069997,-0.00106730,-0.00012543,-0.0
 0051715,-0.24750696,-0.03317532,-0.11902219,0.00090130,0.00154045,0.00
 529734,-0.00003412,0.00013182,-0.00010335,-0.00024203,0.00004973,0.000
 29719,0.00001415,-0.00000198,-0.00001907,0.27931943,0.01025083,0.00089
 502,0.00308907,-0.00048904,0.00087984,0.00059955,0.00030468,0.00021388
 ,0.00010878,-0.03713452,-0.05886899,-0.01983109,0.00038908,-0.00041407
 ,-0.00209712,0.00001196,-0.00001426,0.00000359,0.00006602,-0.00001302,
 -0.00004744,-0.00002802,0.00000033,0.00001922,0.03451343,0.05396356,0.
 03315711,0.00258182,0.01013801,-0.00165171,0.00057085,0.00256493,0.001
 04659,0.00008999,0.00053888,-0.13219172,-0.01966255,-0.12440543,0.0012
 3947,-0.00194558,-0.00658519,-0.00001870,-0.00005332,0.00014041,0.0002
 5596,-0.00005140,-0.00023735,-0.00004072,0.00000038,0.00005975,0.12479
 405,0.02338674,0.13094262,-0.00959142,-0.01661938,0.02874942,-0.000745
 02,-0.00098167,-0.00279306,-0.00023154,0.00084698,-0.00036534,-0.05240
 557,0.01881688,-0.02457916,0.00497622,0.00019095,0.00622317,-0.0000316
 0,0.00005813,-0.00017702,-0.00018323,0.00005952,0.00008107,-0.00002377
 ,-0.00001766,0.00006062,0.00081518,0.01827996,-0.01999095,0.05627892,-
 0.00117201,0.00962091,-0.01003297,0.00103257,-0.00025650,-0.00116968,-
 0.00005412,-0.00040926,-0.00005972,0.01330569,-0.16121868,0.13412104,0
 .00070325,0.00109172,0.00155483,-0.00003797,-0.00005434,0.00006765,-0.
 00000834,-0.00000237,0.00001634,0.00003592,-0.00003518,-0.00010942,-0.
 00011297,0.00430464,-0.00566558,-0.01711745,0.16495515,0.01304834,0.00
 905072,-0.02426115,0.00046245,0.00037898,0.00215949,0.00030094,0.00002
 675,0.00008806,-0.01742557,0.13045461,-0.20896024,-0.00534690,-0.00072
 447,-0.00262118,0.00005232,-0.00009038,0.00004390,0.00011624,-0.000033
 21,-0.00005526,-0.00005715,0.00003453,0.00001576,-0.00152762,0.0096676
 9,-0.00951494,0.01084954,-0.14271529,0.23346053,-0.00904520,0.02995127
 ,0.01471096,-0.00073671,-0.00070117,-0.00274002,-0.00024549,-0.0009734
 9,0.00039801,-0.05371808,-0.03429609,-0.01174129,0.00502693,0.00338961
 ,0.00525596,-0.00014925,0.00002139,0.00002455,-0.00011093,-0.00005785,
 -0.00001213,0.00005627,-0.00013116,-0.00024763,0.00025545,-0.02616001,
 -0.00659899,0.00117610,0.00339180,-0.00048532,0.05749565,0.00826016,-0
 .00113553,-0.00611416,-0.00051805,0.00082198,0.00213417,0.00016694,-0.
 00026518,0.00022214,-0.02571193,-0.29592003,-0.07596146,-0.00361996,-0
 .00029265,-0.00306007,0.00003476,-0.00001149,0.00001790,0.00008708,0.0
 0003051,-0.00003645,-0.00002235,0.00006451,0.00004496,-0.00077905,-0.0
 0096141,0.00071615,-0.00351922,-0.01799930,-0.00603589,0.02560484,0.31
 568230,0.00983592,-0.02501453,-0.01424731,0.00099323,0.00036557,0.0010
 7244,0.00022759,0.00020834,-0.00030190,-0.00868796,-0.07232654,-0.0731
 7009,-0.00420084,-0.00058685,-0.00111888,0.00001175,-0.00005179,0.0001
 1494,0.00007751,0.00010499,0.00000903,-0.00002273,0.00012050,0.0000889
 5,-0.00164011,-0.01490659,-0.00358480,0.00197654,0.02401287,0.00957506
 ,0.00140067,0.08806146,0.08163641,0.00002440,0.00002283,0.00021544,-0.
 00009299,0.00025137,0.00025102,0.00262518,0.00133631,-0.00210221,0.000
 05874,-0.00019842,0.00002910,-0.00005088,0.00024064,-0.00012157,-0.142
 96958,-0.15219098,-0.04882927,0.00075462,0.00018675,0.00105252,0.00103
 115,0.00185954,0.00003611,0.00001929,0.00000032,-0.00001042,-0.0000351
 9,0.00002609,0.00002642,-0.00000547,0.00001566,0.00002959,0.14479925,-
 0.00043907,0.00019247,0.00019425,-0.00009301,0.00042269,0.00082000,-0.
 01048800,-0.01175749,-0.00436779,0.00009908,0.00000925,-0.00009652,0.0
 0085460,-0.00157183,-0.00176627,-0.15619762,-0.22806100,-0.02728820,0.
 00005558,0.00084024,-0.00071352,-0.00056984,-0.00241417,0.00297057,-0.
 00003769,0.00000575,0.00001799,-0.00002206,0.00000758,0.00000751,-0.00
 004765,0.00001407,0.00003534,0.16331519,0.23683028,0.00078345,-0.00048
 665,0.00008697,0.00000309,-0.00082450,-0.00075039,0.01305590,0.0167990
 8,0.00553877,-0.00000331,0.00005726,0.00001701,-0.00154782,0.00167638,
 0.00135145,-0.05328380,-0.03132142,-0.04848772,-0.00031005,-0.00101231
 ,0.00087393,0.00032098,0.00199998,-0.00236996,0.00002414,0.00000029,-0
 .00002168,0.00001686,-0.00000171,0.00000177,0.00003424,-0.00000507,-0.
 00003554,0.05092280,0.02852461,0.04275399,0.00009790,-0.00021147,0.000
 10278,0.00009520,0.00022555,0.00014395,0.00421773,-0.00045973,0.004614
 79,-0.00008403,-0.00000425,0.00006020,-0.00010521,-0.00011074,-0.00060
 630,-0.18703301,-0.00108374,-0.17167219,0.00049795,-0.00044068,0.00021
 026,0.00015300,0.00010445,-0.00052528,-0.00001061,-0.00000469,0.000010
 04,0.00000092,0.00000754,-0.00001369,0.00000073,0.00000112,-0.00000117
 ,-0.00615851,0.00357049,-0.01001647,0.18832795,-0.00066213,-0.00005069
 ,-0.00035626,-0.00078617,0.00062370,0.00049374,0.01579756,0.00008779,0
 .01492645,-0.00012013,0.00004833,-0.00002722,0.00258442,-0.00063494,0.
 00016695,-0.00055929,-0.04782302,0.02565179,-0.00041955,-0.00290741,0.
 00377919,0.00062900,0.00152192,-0.00082941,-0.00003807,0.00000873,0.00
 001452,0.00002501,-0.00000436,-0.00002154,0.00000851,-0.00002779,-0.00
 002277,-0.01486531,0.00548216,-0.01540593,-0.00159385,0.04367556,0.000
 90334,-0.00031303,0.00044838,0.00065452,-0.00024704,-0.00005365,-0.013
 55594,-0.00053020,-0.00960477,0.00033709,-0.00003233,-0.00007587,-0.00
 258064,0.00052848,0.00041835,-0.16409671,0.02489995,-0.18613722,0.0014
 7071,0.00232793,-0.00082141,0.00068755,0.00006843,0.00105575,0.0000372
 0,0.00000731,-0.00003521,-0.00005171,-0.00001835,0.00006821,0.00000100
 ,0.00001631,-0.00003832,-0.00149954,0.00166205,0.00104140,0.17769311,-
 0.02836951,0.19373436\\0.00000024,-0.00000025,0.00000011,-0.00000042,0
 .00000141,0.00000014,0.00000030,0.00000002,0.00000073,-0.00000020,0.00
 000005,-0.00000052,-0.00000030,0.00000041,0.,0.00000018,-0.00000062,-0
 .00000013,0.00000022,0.00000071,0.00000102,0.00000075,-0.00000039,0.00
 000129,-0.00000005,-0.00000062,-0.00000059,-0.00000025,0.00000071,0.00
 000002,-0.00000068,0.00000034,-0.00000118,-0.00000014,-0.00000032,-0.0
 0000055,0.00000037,-0.00000144,-0.00000033\\\@


 When cryptography is outlawed, bayl bhgynjf jvyy unir cevinpl.
 Job cpu time:       0 days  1 hours 48 minutes 43.9 seconds.
 Elapsed time:       0 days  0 hours  5 minutes 26.7 seconds.
 File lengths (MBytes):  RWF=   1392 Int=      0 D2E=      0 Chk=     32 Scr=     32
 Normal termination of Gaussian 16 at Tue Apr  9 02:24:18 2019.
