 Entering Gaussian System, Link 0=g16
 Input=NPQBOSHSVUVOHJ-UHFFFAOYSA-N_GeoFreq_a1.com
 Output=NPQBOSHSVUVOHJ-UHFFFAOYSA-N_GeoFreq_a1.log
 Initial command:
 /shared/centos7/gaussian/g16/l1.exe "/scratch/underkoffler.c/gaussian_scratch/Gau-910.inp" -scrdir="/scratch/underkoffler.c/gaussian_scratch/"
 Entering Link 1 = /shared/centos7/gaussian/g16/l1.exe PID=       911.
  
 Copyright (c) 1988,1990,1992,1993,1995,1998,2003,2009,2016,
            Gaussian, Inc.  All Rights Reserved.
  
 This is part of the Gaussian(R) 16 program.  It is based on
 the Gaussian(R) 09 system (copyright 2009, Gaussian, Inc.),
 the Gaussian(R) 03 system (copyright 2003, Gaussian, Inc.),
 the Gaussian(R) 98 system (copyright 1998, Gaussian, Inc.),
 the Gaussian(R) 94 system (copyright 1995, Gaussian, Inc.),
 the Gaussian 92(TM) system (copyright 1992, Gaussian, Inc.),
 the Gaussian 90(TM) system (copyright 1990, Gaussian, Inc.),
 the Gaussian 88(TM) system (copyright 1988, Gaussian, Inc.),
 the Gaussian 86(TM) system (copyright 1986, Carnegie Mellon
 University), and the Gaussian 82(TM) system (copyright 1983,
 Carnegie Mellon University). Gaussian is a federally registered
 trademark of Gaussian, Inc.
  
 This software contains proprietary and confidential information,
 including trade secrets, belonging to Gaussian, Inc.
  
 This software is provided under written license and may be
 used, copied, transmitted, or stored only in accord with that
 written license.
  
 The following legend is applicable only to US Government
 contracts under FAR:
  
                    RESTRICTED RIGHTS LEGEND
  
 Use, reproduction and disclosure by the US Government is
 subject to restrictions as set forth in subparagraphs (a)
 and (c) of the Commercial Computer Software - Restricted
 Rights clause in FAR 52.227-19.
  
 Gaussian, Inc.
 340 Quinnipiac St., Bldg. 40, Wallingford CT 06492
  
  
 ---------------------------------------------------------------
 Warning -- This program may not be used in any manner that
 competes with the business of Gaussian, Inc. or will provide
 assistance to any competitor of Gaussian, Inc.  The licensee
 of this program is prohibited from giving any competitor of
 Gaussian, Inc. access to this program.  By using this program,
 the user acknowledges that Gaussian, Inc. is engaged in the
 business of creating and licensing software in the field of
 computational chemistry and represents and warrants to the
 licensee that it is not a competitor of Gaussian, Inc. and that
 it will not use this program in any manner prohibited above.
 ---------------------------------------------------------------
  

 Cite this work as:
 Gaussian 16, Revision A.03,
 M. J. Frisch, G. W. Trucks, H. B. Schlegel, G. E. Scuseria, 
 M. A. Robb, J. R. Cheeseman, G. Scalmani, V. Barone, 
 G. A. Petersson, H. Nakatsuji, X. Li, M. Caricato, A. V. Marenich, 
 J. Bloino, B. G. Janesko, R. Gomperts, B. Mennucci, H. P. Hratchian, 
 J. V. Ortiz, A. F. Izmaylov, J. L. Sonnenberg, D. Williams-Young, 
 F. Ding, F. Lipparini, F. Egidi, J. Goings, B. Peng, A. Petrone, 
 T. Henderson, D. Ranasinghe, V. G. Zakrzewski, J. Gao, N. Rega, 
 G. Zheng, W. Liang, M. Hada, M. Ehara, K. Toyota, R. Fukuda, 
 J. Hasegawa, M. Ishida, T. Nakajima, Y. Honda, O. Kitao, H. Nakai, 
 T. Vreven, K. Throssell, J. A. Montgomery, Jr., J. E. Peralta, 
 F. Ogliaro, M. J. Bearpark, J. J. Heyd, E. N. Brothers, K. N. Kudin, 
 V. N. Staroverov, T. A. Keith, R. Kobayashi, J. Normand, 
 K. Raghavachari, A. P. Rendell, J. C. Burant, S. S. Iyengar, 
 J. Tomasi, M. Cossi, J. M. Millam, M. Klene, C. Adamo, R. Cammi, 
 J. W. Ochterski, R. L. Martin, K. Morokuma, O. Farkas, 
 J. B. Foresman, and D. J. Fox, Gaussian, Inc., Wallingford CT, 2016.
 
 ******************************************
 Gaussian 16:  EM64L-G16RevA.03 25-Dec-2016
                11-Mar-2019 
 ******************************************
 %nprocshared=20
 Will use up to   20 processors via shared memory.
 %mem=5GB
 ----------------------------------------------------------------------
 #p m062x/6-311+g(2df,2p) opt=(calcfc,verytight,gdiis,maxcycles=900) fr
 eq iop(7/33=1,2/16=3)
 ----------------------------------------------------------------------

 Warning!  Use of Opt=GDIIS is deprecated since it is seldom a good choice.

 1/6=900,7=1,10=4,18=20,19=11,26=3,38=1/1,3;
 2/9=110,12=2,16=3,17=6,18=5,40=1/2;
 3/5=4,6=6,7=214,11=2,25=1,30=1,71=2,74=-55,140=1/1,2,3;
 4//1;
 5/5=2,38=5/2;
 8/6=4,10=90,11=11/1;
 11/6=1,8=1,9=11,15=111,16=1/1,2,10;
 10/6=1,13=1/2;
 6/7=2,8=2,9=2,10=2,28=1/1;
 7/10=1,18=20,25=1,33=1/1,2,3,16;
 1/6=900,7=1,10=4,18=20,19=11,26=3/3(2);
 2/9=110,16=3/2;
 99//99;
 2/9=110,16=3/2;
 3/5=4,6=6,7=214,11=2,25=1,30=1,71=1,74=-55/1,2,3;
 4/5=5,16=3,69=1/1;
 5/5=2,38=5/2;
 7/33=1/1,2,3,16;
 1/6=900,7=1,18=20,19=11,26=3/3(-5);
 2/9=110,16=3/2;
 6/7=2,8=2,9=2,10=2,19=2,28=1/1;
 99/9=1/99;
 Leave Link    1 at Mon Mar 11 15:45:01 2019, MaxMem=   671088640 cpu:              30.3 elap:               1.6
 (Enter /shared/centos7/gaussian/g16/l101.exe)
 ------------------------------
 Gaussian input prepared by ASE
 ------------------------------
 Symbolic Z-matrix:
 Charge =  0 Multiplicity = 2
 O                     0.75414  -0.66502   0.28278 
 O                     0.40921   1.46874  -0.29594 
 C                    -1.44125   0.16072   0.54769 
 C                     2.1107   -0.52713  -0.1344 
 C                    -0.00452   0.42976   0.13524 
 C                    -2.12009  -0.68528  -0.47352 
 H                    -1.42352  -0.34367   1.51486 
 H                    -1.92634   1.12803   0.65104 
 H                     2.60653   0.25086   0.44256 
 H                     2.15591  -0.26668  -1.19 
 H                     2.57693  -1.49038   0.04259 
 H                    -2.61153  -0.22571  -1.31624 
 H                    -1.95368  -1.75056  -0.48957 
 
 ITRead=  0  0  0  0  0  0  0  0  0  0  0  0  0
 MicOpt= -1 -1 -1 -1 -1 -1 -1 -1 -1 -1 -1 -1 -1
 NAtoms=     13 NQM=       13 NQMF=       0 NMMI=      0 NMMIF=      0
                NMic=       0 NMicF=      0.
                    Isotopes and Nuclear Properties:
 (Nuclear quadrupole moments (NQMom) in fm**2, nuclear magnetic moments (NMagM)
  in nuclear magnetons)

  Atom         1           2           3           4           5           6           7           8           9          10
 IAtWgt=          16          16          12          12          12          12           1           1           1           1
 AtmWgt=  15.9949146  15.9949146  12.0000000  12.0000000  12.0000000  12.0000000   1.0078250   1.0078250   1.0078250   1.0078250
 NucSpn=           0           0           0           0           0           0           1           1           1           1
 AtZEff=  -0.0000000  -0.0000000  -0.0000000  -0.0000000  -0.0000000  -0.0000000  -0.0000000  -0.0000000  -0.0000000  -0.0000000
 NQMom=    0.0000000   0.0000000   0.0000000   0.0000000   0.0000000   0.0000000   0.0000000   0.0000000   0.0000000   0.0000000
 NMagM=    0.0000000   0.0000000   0.0000000   0.0000000   0.0000000   0.0000000   2.7928460   2.7928460   2.7928460   2.7928460
 AtZNuc=   8.0000000   8.0000000   6.0000000   6.0000000   6.0000000   6.0000000   1.0000000   1.0000000   1.0000000   1.0000000

  Atom        11          12          13
 IAtWgt=           1           1           1
 AtmWgt=   1.0078250   1.0078250   1.0078250
 NucSpn=           1           1           1
 AtZEff=  -0.0000000  -0.0000000  -0.0000000
 NQMom=    0.0000000   0.0000000   0.0000000
 NMagM=    2.7928460   2.7928460   2.7928460
 AtZNuc=   1.0000000   1.0000000   1.0000000
 Leave Link  101 at Mon Mar 11 15:45:01 2019, MaxMem=   671088640 cpu:               5.1 elap:               0.3
 (Enter /shared/centos7/gaussian/g16/l103.exe)

 GradGradGradGradGradGradGradGradGradGradGradGradGradGradGradGradGradGrad
 Berny optimization.
 Initialization pass.
                           ----------------------------
                           !    Initial Parameters    !
                           ! (Angstroms and Degrees)  !
 --------------------------                            --------------------------
 ! Name  Definition              Value          Derivative Info.                !
 --------------------------------------------------------------------------------
 ! R1    R(1,4)                  1.4259         calculate D2E/DX2 analytically  !
 ! R2    R(1,5)                  1.3401         calculate D2E/DX2 analytically  !
 ! R3    R(2,5)                  1.1986         calculate D2E/DX2 analytically  !
 ! R4    R(3,5)                  1.5188         calculate D2E/DX2 analytically  !
 ! R5    R(3,6)                  1.4898         calculate D2E/DX2 analytically  !
 ! R6    R(3,7)                  1.0909         calculate D2E/DX2 analytically  !
 ! R7    R(3,8)                  1.0871         calculate D2E/DX2 analytically  !
 ! R8    R(4,9)                  1.0881         calculate D2E/DX2 analytically  !
 ! R9    R(4,10)                 1.0882         calculate D2E/DX2 analytically  !
 ! R10   R(4,11)                 1.0847         calculate D2E/DX2 analytically  !
 ! R11   R(6,12)                 1.0784         calculate D2E/DX2 analytically  !
 ! R12   R(6,13)                 1.0783         calculate D2E/DX2 analytically  !
 ! A1    A(4,1,5)              115.3006         calculate D2E/DX2 analytically  !
 ! A2    A(5,3,6)              110.2116         calculate D2E/DX2 analytically  !
 ! A3    A(5,3,7)              107.8957         calculate D2E/DX2 analytically  !
 ! A4    A(5,3,8)              106.877          calculate D2E/DX2 analytically  !
 ! A5    A(6,3,7)              110.6445         calculate D2E/DX2 analytically  !
 ! A6    A(6,3,8)              111.5406         calculate D2E/DX2 analytically  !
 ! A7    A(7,3,8)              109.5349         calculate D2E/DX2 analytically  !
 ! A8    A(1,4,9)              110.3354         calculate D2E/DX2 analytically  !
 ! A9    A(1,4,10)             110.2716         calculate D2E/DX2 analytically  !
 ! A10   A(1,4,11)             105.9804         calculate D2E/DX2 analytically  !
 ! A11   A(9,4,10)             108.9229         calculate D2E/DX2 analytically  !
 ! A12   A(9,4,11)             110.6438         calculate D2E/DX2 analytically  !
 ! A13   A(10,4,11)            110.669          calculate D2E/DX2 analytically  !
 ! A14   A(1,5,2)              123.5286         calculate D2E/DX2 analytically  !
 ! A15   A(1,5,3)              111.1569         calculate D2E/DX2 analytically  !
 ! A16   A(2,5,3)              125.2953         calculate D2E/DX2 analytically  !
 ! A17   A(3,6,12)             120.0882         calculate D2E/DX2 analytically  !
 ! A18   A(3,6,13)             120.0589         calculate D2E/DX2 analytically  !
 ! A19   A(12,6,13)            118.6667         calculate D2E/DX2 analytically  !
 ! D1    D(5,1,4,9)             60.5912         calculate D2E/DX2 analytically  !
 ! D2    D(5,1,4,10)           -59.7781         calculate D2E/DX2 analytically  !
 ! D3    D(5,1,4,11)          -179.5913         calculate D2E/DX2 analytically  !
 ! D4    D(4,1,5,2)             -1.0583         calculate D2E/DX2 analytically  !
 ! D5    D(4,1,5,3)            177.4172         calculate D2E/DX2 analytically  !
 ! D6    D(6,3,5,1)            -73.0479         calculate D2E/DX2 analytically  !
 ! D7    D(6,3,5,2)            105.395          calculate D2E/DX2 analytically  !
 ! D8    D(7,3,5,1)             47.8617         calculate D2E/DX2 analytically  !
 ! D9    D(7,3,5,2)           -133.6953         calculate D2E/DX2 analytically  !
 ! D10   D(8,3,5,1)            165.5825         calculate D2E/DX2 analytically  !
 ! D11   D(8,3,5,2)            -15.9745         calculate D2E/DX2 analytically  !
 ! D12   D(5,3,6,12)           -87.8957         calculate D2E/DX2 analytically  !
 ! D13   D(5,3,6,13)            79.4956         calculate D2E/DX2 analytically  !
 ! D14   D(7,3,6,12)           152.8539         calculate D2E/DX2 analytically  !
 ! D15   D(7,3,6,13)           -39.7547         calculate D2E/DX2 analytically  !
 ! D16   D(8,3,6,12)            30.6539         calculate D2E/DX2 analytically  !
 ! D17   D(8,3,6,13)          -161.9548         calculate D2E/DX2 analytically  !
 --------------------------------------------------------------------------------
 Trust Radius=3.00D-01 FncErr=1.00D-07 GrdErr=1.00D-06 EigMax=2.50D+02 EigMin=1.00D-04
 Number of steps in this run=    100 maximum allowed number of steps=    100.
 GradGradGradGradGradGradGradGradGradGradGradGradGradGradGradGradGradGrad

 Leave Link  103 at Mon Mar 11 15:45:01 2019, MaxMem=   671088640 cpu:               0.2 elap:               0.0
 (Enter /shared/centos7/gaussian/g16/l202.exe)
                          Input orientation:                          
 ---------------------------------------------------------------------
 Center     Atomic      Atomic             Coordinates (Angstroms)
 Number     Number       Type             X           Y           Z
 ---------------------------------------------------------------------
      1          8           0        0.754135   -0.665018    0.282784
      2          8           0        0.409205    1.468735   -0.295939
      3          6           0       -1.441252    0.160717    0.547687
      4          6           0        2.110695   -0.527133   -0.134398
      5          6           0       -0.004524    0.429758    0.135236
      6          6           0       -2.120087   -0.685279   -0.473524
      7          1           0       -1.423521   -0.343674    1.514857
      8          1           0       -1.926335    1.128032    0.651041
      9          1           0        2.606527    0.250859    0.442561
     10          1           0        2.155905   -0.266683   -1.189999
     11          1           0        2.576928   -1.490382    0.042590
     12          1           0       -2.611532   -0.225705   -1.316244
     13          1           0       -1.953680   -1.750562   -0.489574
 ---------------------------------------------------------------------
                    Distance matrix (angstroms):
                    1          2          3          4          5
     1  O    0.000000
     2  O    2.237588   0.000000
     3  C    2.360452   2.418017   0.000000
     4  C    1.425941   2.627671   3.681672   0.000000
     5  C    1.340100   1.198564   1.518778   2.337198   0.000000
     6  C    2.972131   3.326955   1.489764   4.247297   2.467692
     7  H    2.522588   3.150031   1.090937   3.904405   2.124877
     8  H    3.245853   2.543147   1.087054   4.433294   2.108791
     9  H    2.072611   2.618555   4.050147   1.088119   2.635155
    10  H    2.071888   2.619538   4.017681   1.088196   2.628447
    11  H    2.015315   3.683748   4.373445   1.084687   3.218605
    12  H    3.752013   3.610679   2.234528   4.877197   3.054982
    13  H    3.017815   3.998074   2.234162   4.259351   2.990550
                    6          7          8          9         10
     6  C    0.000000
     7  H    2.134375   0.000000
     8  H    2.142495   1.779022   0.000000
     9  H    4.904737   4.212431   4.621659   0.000000
    10  H    4.355762   4.487144   4.690346   1.770921   0.000000
    11  H    4.793382   4.414306   5.244586   1.786833   1.787170
    12  H    1.078380   3.072527   2.484413   5.527083   4.769284
    13  H    1.078321   2.505623   3.096458   5.066562   4.425063
                   11         12         13
    11  H    0.000000
    12  H    5.510531   0.000000
    13  H    4.569169   1.855085   0.000000
 Stoichiometry    C4H7O2(2)
 Framework group  C1[X(C4H7O2)]
 Deg. of freedom    33
 Full point group                 C1      NOp   1
 Largest Abelian subgroup         C1      NOp   1
 Largest concise Abelian subgroup C1      NOp   1
                         Standard orientation:                         
 ---------------------------------------------------------------------
 Center     Atomic      Atomic             Coordinates (Angstroms)
 Number     Number       Type             X           Y           Z
 ---------------------------------------------------------------------
      1          8           0        0.754135   -0.665018    0.282784
      2          8           0        0.409205    1.468735   -0.295939
      3          6           0       -1.441252    0.160717    0.547687
      4          6           0        2.110695   -0.527133   -0.134398
      5          6           0       -0.004524    0.429758    0.135236
      6          6           0       -2.120087   -0.685279   -0.473524
      7          1           0       -1.423521   -0.343674    1.514857
      8          1           0       -1.926335    1.128032    0.651041
      9          1           0        2.606527    0.250859    0.442561
     10          1           0        2.155905   -0.266683   -1.189999
     11          1           0        2.576928   -1.490382    0.042590
     12          1           0       -2.611532   -0.225705   -1.316244
     13          1           0       -1.953680   -1.750562   -0.489574
 ---------------------------------------------------------------------
 Rotational constants (GHZ):           6.6806386           2.5979527           2.1163570
 Leave Link  202 at Mon Mar 11 15:45:01 2019, MaxMem=   671088640 cpu:               0.2 elap:               0.0
 (Enter /shared/centos7/gaussian/g16/l301.exe)
 Standard basis: 6-311+G(2df,2p) (5D, 7F)
 Ernie: Thresh=  0.10000D-02 Tol=  0.10000D-05 Strict=F.
 There are   297 symmetry adapted cartesian basis functions of A   symmetry.
 There are   267 symmetry adapted basis functions of A   symmetry.
   267 basis functions,   389 primitive gaussians,   297 cartesian basis functions
    24 alpha electrons       23 beta electrons
       nuclear repulsion energy       238.0262821262 Hartrees.
 IExCor= 4336 DFT=T Ex+Corr=M062X ExCW=0 ScaHFX=  0.540000
 ScaDFX=  1.000000  1.000000  1.000000  1.000000 ScalE2=  1.000000  1.000000
 IRadAn=      5 IRanWt=     -1 IRanGd=            0 ICorTp=0 IEmpDi=  4
 NAtoms=   13 NActive=   13 NUniq=   13 SFac= 1.00D+00 NAtFMM=   60 NAOKFM=F Big=F
 Integral buffers will be    131072 words long.
 Raffenetti 2 integral format.
 Two-electron integral symmetry is turned on.
 Leave Link  301 at Mon Mar 11 15:45:02 2019, MaxMem=   671088640 cpu:               0.9 elap:               0.1
 (Enter /shared/centos7/gaussian/g16/l302.exe)
 NPDir=0 NMtPBC=     1 NCelOv=     1 NCel=       1 NClECP=     1 NCelD=      1
         NCelK=      1 NCelE2=     1 NClLst=     1 CellRange=     0.0.
 One-electron integrals computed using PRISM.
 One-electron integral symmetry used in STVInt
 NBasis=   267 RedAO= T EigKep=  3.57D-05  NBF=   267
 NBsUse=   267 1.00D-06 EigRej= -1.00D+00 NBFU=   267
 Precomputing XC quadrature grid using
 IXCGrd= 4 IRadAn=           5 IRanWt=          -1 IRanGd=           0 AccXCQ= 0.00D+00.
 Generated NRdTot=       0 NPtTot=           0 NUsed=           0 NTot=          32
 NSgBfM=   297   297   297   297   297 MxSgAt=    13 MxSgA2=    13.
 Leave Link  302 at Mon Mar 11 15:45:02 2019, MaxMem=   671088640 cpu:               6.3 elap:               0.3
 (Enter /shared/centos7/gaussian/g16/l303.exe)
 DipDrv:  MaxL=1.
 Leave Link  303 at Mon Mar 11 15:45:02 2019, MaxMem=   671088640 cpu:               0.5 elap:               0.0
 (Enter /shared/centos7/gaussian/g16/l401.exe)
 ExpMin= 4.38D-02 ExpMax= 8.59D+03 ExpMxC= 1.30D+03 IAcc=3 IRadAn=         5 AccDes= 0.00D+00
 Harris functional with IExCor= 1009 and IRadAn=       5 diagonalized for initial guess.
 HarFok:  IExCor= 1009 AccDes= 0.00D+00 IRadAn=         5 IDoV= 1 UseB2=F ITyADJ=14
 ICtDFT=  3500011 ScaDFX=  1.000000  1.000000  1.000000  1.000000
 FoFCou: FMM=F IPFlag=           0 FMFlag=      100000 FMFlg1=           0
         NFxFlg=           0 DoJE=T BraDBF=F KetDBF=T FulRan=T
         wScrn=  0.000000 ICntrl=       500 IOpCl=  0 I1Cent=   200000004 NGrid=           0
         NMat0=    1 NMatS0=      1 NMatT0=    0 NMatD0=    1 NMtDS0=    0 NMtDT0=    0
 Petite list used in FoFCou.
 Harris En= -306.860162290937    
 JPrj=0 DoOrth=F DoCkMO=F.
 Initial guess <Sx>= 0.0000 <Sy>= 0.0000 <Sz>= 0.5000 <S**2>= 0.7500 S= 0.5000
 Leave Link  401 at Mon Mar 11 15:45:03 2019, MaxMem=   671088640 cpu:              18.1 elap:               0.9
 (Enter /shared/centos7/gaussian/g16/l502.exe)
 Integral symmetry usage will be decided dynamically.
 UHF open shell SCF:
 Using DIIS extrapolation, IDIIS=  1040.
 NGot=   671088640 LenX=   670903575 LenY=   670814925
 Requested convergence on RMS density matrix=1.00D-08 within 128 cycles.
 Requested convergence on MAX density matrix=1.00D-06.
 Requested convergence on             energy=1.00D-06.
 No special actions if energy rises.
 Fock matrices will be formed incrementally for  20 cycles.

 Cycle   1  Pass 1  IDiag  1:
 FoFJK:  IHMeth= 1 ICntrl=       0 DoSepK=F KAlg= 0 I1Cent=           0 FoldK=F
 IRaf= 970000000 NMat=       1 IRICut=       1 DoRegI=T DoRafI=F ISym2E= 0 IDoP0=0 IntGTp=1.
 FoFCou: FMM=F IPFlag=           0 FMFlag=      100000 FMFlg1=           0
         NFxFlg=           0 DoJE=F BraDBF=F KetDBF=F FulRan=T
         wScrn=  0.000000 ICntrl=         0 IOpCl=  1 I1Cent=           0 NGrid=           0
         NMat0=    1 NMatS0=      1 NMatT0=    0 NMatD0=    1 NMtDS0=    0 NMtDT0=    0
 Symmetry not used in FoFCou.
 E= -306.827096699478    
 DIIS: error= 2.10D-02 at cycle   1 NSaved=   1.
 NSaved= 1 IEnMin= 1 EnMin= -306.827096699478     IErMin= 1 ErrMin= 2.10D-02
 ErrMax= 2.10D-02  0.00D+00 EMaxC= 1.00D-01 BMatC= 9.84D-01 BMatP= 9.84D-01
 IDIUse=3 WtCom= 7.90D-01 WtEn= 2.10D-01
 Coeff-Com:  0.100D+01
 Coeff-En:   0.100D+01
 Coeff:      0.100D+01
 Gap=     0.279 Goal=   None    Shift=    0.000
 Gap=     0.373 Goal=   None    Shift=    0.000
 GapD=    0.279 DampG=1.000 DampE=0.500 DampFc=0.5000 IDamp=-1.
 Damping current iteration by 5.00D-01
 RMSDP=2.51D-03 MaxDP=8.73D-02              OVMax= 1.79D-01

 Cycle   2  Pass 1  IDiag  1:
 RMSU=  1.24D-03    CP:  9.83D-01
 E= -306.910800374075     Delta-E=       -0.083703674597 Rises=F Damp=T
 DIIS: error= 5.70D-03 at cycle   2 NSaved=   2.
 NSaved= 2 IEnMin= 2 EnMin= -306.910800374075     IErMin= 2 ErrMin= 5.70D-03
 ErrMax= 5.70D-03  0.00D+00 EMaxC= 1.00D-01 BMatC= 8.91D-02 BMatP= 9.84D-01
 IDIUse=3 WtCom= 9.43D-01 WtEn= 5.70D-02
 Coeff-Com: -0.345D-01 0.103D+01
 Coeff-En:   0.000D+00 0.100D+01
 Coeff:     -0.326D-01 0.103D+01
 Gap=     0.280 Goal=   None    Shift=    0.000
 Gap=     0.343 Goal=   None    Shift=    0.000
 RMSDP=8.97D-04 MaxDP=3.89D-02 DE=-8.37D-02 OVMax= 8.84D-02

 Cycle   3  Pass 1  IDiag  1:
 RMSU=  8.78D-04    CP:  9.67D-01  1.07D+00
 E= -306.992570350395     Delta-E=       -0.081769976320 Rises=F Damp=F
 DIIS: error= 5.34D-03 at cycle   3 NSaved=   3.
 NSaved= 3 IEnMin= 3 EnMin= -306.992570350395     IErMin= 3 ErrMin= 5.34D-03
 ErrMax= 5.34D-03  0.00D+00 EMaxC= 1.00D-01 BMatC= 5.87D-02 BMatP= 8.91D-02
 IDIUse=3 WtCom= 9.47D-01 WtEn= 5.34D-02
 Coeff-Com: -0.970D-01 0.488D+00 0.609D+00
 Coeff-En:   0.000D+00 0.000D+00 0.100D+01
 Coeff:     -0.918D-01 0.462D+00 0.630D+00
 Gap=     0.293 Goal=   None    Shift=    0.000
 Gap=     0.312 Goal=   None    Shift=    0.000
 RMSDP=3.87D-04 MaxDP=1.47D-02 DE=-8.18D-02 OVMax= 4.32D-02

 Cycle   4  Pass 1  IDiag  1:
 RMSU=  3.32D-04    CP:  9.68D-01  1.18D+00  8.43D-01
 E= -307.001535148310     Delta-E=       -0.008964797914 Rises=F Damp=F
 DIIS: error= 1.70D-03 at cycle   4 NSaved=   4.
 NSaved= 4 IEnMin= 4 EnMin= -307.001535148310     IErMin= 4 ErrMin= 1.70D-03
 ErrMax= 1.70D-03  0.00D+00 EMaxC= 1.00D-01 BMatC= 9.53D-03 BMatP= 5.87D-02
 IDIUse=3 WtCom= 9.83D-01 WtEn= 1.70D-02
 Coeff-Com: -0.349D-01 0.830D-01 0.323D+00 0.629D+00
 Coeff-En:   0.000D+00 0.000D+00 0.117D+00 0.883D+00
 Coeff:     -0.343D-01 0.816D-01 0.320D+00 0.633D+00
 Gap=     0.288 Goal=   None    Shift=    0.000
 Gap=     0.318 Goal=   None    Shift=    0.000
 RMSDP=1.34D-04 MaxDP=4.74D-03 DE=-8.96D-03 OVMax= 1.40D-02

 Cycle   5  Pass 1  IDiag  1:
 RMSU=  7.42D-05    CP:  9.66D-01  1.16D+00  9.15D-01  7.37D-01
 E= -307.003387735705     Delta-E=       -0.001852587396 Rises=F Damp=F
 DIIS: error= 4.32D-04 at cycle   5 NSaved=   5.
 NSaved= 5 IEnMin= 5 EnMin= -307.003387735705     IErMin= 5 ErrMin= 4.32D-04
 ErrMax= 4.32D-04  0.00D+00 EMaxC= 1.00D-01 BMatC= 3.33D-04 BMatP= 9.53D-03
 IDIUse=3 WtCom= 9.96D-01 WtEn= 4.32D-03
 Coeff-Com: -0.764D-02 0.829D-02 0.929D-01 0.241D+00 0.666D+00
 Coeff-En:   0.000D+00 0.000D+00 0.000D+00 0.000D+00 0.100D+01
 Coeff:     -0.761D-02 0.826D-02 0.925D-01 0.240D+00 0.667D+00
 Gap=     0.288 Goal=   None    Shift=    0.000
 Gap=     0.318 Goal=   None    Shift=    0.000
 RMSDP=3.32D-05 MaxDP=1.32D-03 DE=-1.85D-03 OVMax= 3.37D-03

 Cycle   6  Pass 1  IDiag  1:
 RMSU=  3.04D-05    CP:  9.66D-01  1.16D+00  9.25D-01  7.65D-01  1.01D+00
 E= -307.003468030364     Delta-E=       -0.000080294659 Rises=F Damp=F
 DIIS: error= 1.78D-04 at cycle   6 NSaved=   6.
 NSaved= 6 IEnMin= 6 EnMin= -307.003468030364     IErMin= 6 ErrMin= 1.78D-04
 ErrMax= 1.78D-04  0.00D+00 EMaxC= 1.00D-01 BMatC= 6.42D-05 BMatP= 3.33D-04
 IDIUse=3 WtCom= 9.98D-01 WtEn= 1.78D-03
 Coeff-Com:  0.448D-02-0.149D-01-0.317D-01-0.470D-01 0.242D+00 0.847D+00
 Coeff-En:   0.000D+00 0.000D+00 0.000D+00 0.000D+00 0.000D+00 0.100D+01
 Coeff:      0.447D-02-0.149D-01-0.316D-01-0.469D-01 0.241D+00 0.848D+00
 Gap=     0.289 Goal=   None    Shift=    0.000
 Gap=     0.319 Goal=   None    Shift=    0.000
 RMSDP=2.17D-05 MaxDP=8.47D-04 DE=-8.03D-05 OVMax= 3.23D-03

 Cycle   7  Pass 1  IDiag  1:
 RMSU=  1.50D-05    CP:  9.66D-01  1.16D+00  9.32D-01  7.76D-01  1.17D+00
                    CP:  1.23D+00
 E= -307.003492411529     Delta-E=       -0.000024381165 Rises=F Damp=F
 DIIS: error= 6.13D-05 at cycle   7 NSaved=   7.
 NSaved= 7 IEnMin= 7 EnMin= -307.003492411529     IErMin= 7 ErrMin= 6.13D-05
 ErrMax= 6.13D-05  0.00D+00 EMaxC= 1.00D-01 BMatC= 7.88D-06 BMatP= 6.42D-05
 IDIUse=1 WtCom= 1.00D+00 WtEn= 0.00D+00
 Coeff-Com:  0.270D-02-0.530D-02-0.250D-01-0.624D-01-0.699D-01 0.219D+00
 Coeff-Com:  0.941D+00
 Coeff:      0.270D-02-0.530D-02-0.250D-01-0.624D-01-0.699D-01 0.219D+00
 Coeff:      0.941D+00
 Gap=     0.289 Goal=   None    Shift=    0.000
 Gap=     0.320 Goal=   None    Shift=    0.000
 RMSDP=1.07D-05 MaxDP=6.14D-04 DE=-2.44D-05 OVMax= 1.81D-03

 Cycle   8  Pass 1  IDiag  1:
 RMSU=  5.66D-06    CP:  9.66D-01  1.16D+00  9.33D-01  7.75D-01  1.25D+00
                    CP:  1.42D+00  1.26D+00
 E= -307.003496289282     Delta-E=       -0.000003877753 Rises=F Damp=F
 DIIS: error= 2.13D-05 at cycle   8 NSaved=   8.
 NSaved= 8 IEnMin= 8 EnMin= -307.003496289282     IErMin= 8 ErrMin= 2.13D-05
 ErrMax= 2.13D-05  0.00D+00 EMaxC= 1.00D-01 BMatC= 8.08D-07 BMatP= 7.88D-06
 IDIUse=1 WtCom= 1.00D+00 WtEn= 0.00D+00
 Coeff-Com:  0.350D-03-0.285D-03-0.424D-02-0.146D-01-0.437D-01-0.304D-02
 Coeff-Com:  0.286D+00 0.779D+00
 Coeff:      0.350D-03-0.285D-03-0.424D-02-0.146D-01-0.437D-01-0.304D-02
 Coeff:      0.286D+00 0.779D+00
 Gap=     0.289 Goal=   None    Shift=    0.000
 Gap=     0.320 Goal=   None    Shift=    0.000
 RMSDP=2.44D-06 MaxDP=1.01D-04 DE=-3.88D-06 OVMax= 2.96D-04

 Cycle   9  Pass 1  IDiag  1:
 RMSU=  1.62D-06    CP:  9.66D-01  1.16D+00  9.33D-01  7.75D-01  1.26D+00
                    CP:  1.46D+00  1.35D+00  1.05D+00
 E= -307.003496573471     Delta-E=       -0.000000284189 Rises=F Damp=F
 DIIS: error= 6.69D-06 at cycle   9 NSaved=   9.
 NSaved= 9 IEnMin= 9 EnMin= -307.003496573471     IErMin= 9 ErrMin= 6.69D-06
 ErrMax= 6.69D-06  0.00D+00 EMaxC= 1.00D-01 BMatC= 7.90D-08 BMatP= 8.08D-07
 IDIUse=1 WtCom= 1.00D+00 WtEn= 0.00D+00
 Coeff-Com: -0.370D-03 0.804D-03 0.298D-02 0.690D-02 0.180D-02-0.273D-01
 Coeff-Com: -0.924D-01 0.118D+00 0.990D+00
 Coeff:     -0.370D-03 0.804D-03 0.298D-02 0.690D-02 0.180D-02-0.273D-01
 Coeff:     -0.924D-01 0.118D+00 0.990D+00
 Gap=     0.289 Goal=   None    Shift=    0.000
 Gap=     0.320 Goal=   None    Shift=    0.000
 RMSDP=1.17D-06 MaxDP=5.85D-05 DE=-2.84D-07 OVMax= 1.38D-04

 Cycle  10  Pass 1  IDiag  1:
 RMSU=  7.56D-07    CP:  9.66D-01  1.16D+00  9.33D-01  7.75D-01  1.25D+00
                    CP:  1.46D+00  1.38D+00  1.16D+00  1.22D+00
 E= -307.003496618112     Delta-E=       -0.000000044641 Rises=F Damp=F
 DIIS: error= 1.77D-06 at cycle  10 NSaved=  10.
 NSaved=10 IEnMin=10 EnMin= -307.003496618112     IErMin=10 ErrMin= 1.77D-06
 ErrMax= 1.77D-06  0.00D+00 EMaxC= 1.00D-01 BMatC= 7.46D-09 BMatP= 7.90D-08
 IDIUse=1 WtCom= 1.00D+00 WtEn= 0.00D+00
 Coeff-Com: -0.665D-04 0.109D-03 0.591D-03 0.193D-02 0.367D-02-0.232D-02
 Coeff-Com: -0.337D-01-0.546D-01 0.853D-01 0.999D+00
 Coeff:     -0.665D-04 0.109D-03 0.591D-03 0.193D-02 0.367D-02-0.232D-02
 Coeff:     -0.337D-01-0.546D-01 0.853D-01 0.999D+00
 Gap=     0.289 Goal=   None    Shift=    0.000
 Gap=     0.320 Goal=   None    Shift=    0.000
 RMSDP=4.48D-07 MaxDP=2.56D-05 DE=-4.46D-08 OVMax= 6.17D-05

 Cycle  11  Pass 1  IDiag  1:
 RMSU=  2.99D-07    CP:  9.66D-01  1.16D+00  9.33D-01  7.75D-01  1.25D+00
                    CP:  1.46D+00  1.38D+00  1.18D+00  1.37D+00  1.10D+00
 E= -307.003496624215     Delta-E=       -0.000000006103 Rises=F Damp=F
 DIIS: error= 8.43D-07 at cycle  11 NSaved=  11.
 NSaved=11 IEnMin=11 EnMin= -307.003496624215     IErMin=11 ErrMin= 8.43D-07
 ErrMax= 8.43D-07  0.00D+00 EMaxC= 1.00D-01 BMatC= 1.25D-09 BMatP= 7.46D-09
 IDIUse=1 WtCom= 1.00D+00 WtEn= 0.00D+00
 Coeff-Com:  0.457D-04-0.978D-04-0.376D-03-0.785D-03 0.208D-03 0.326D-02
 Coeff-Com:  0.997D-02-0.188D-01-0.139D+00 0.874D-01 0.106D+01
 Coeff:      0.457D-04-0.978D-04-0.376D-03-0.785D-03 0.208D-03 0.326D-02
 Coeff:      0.997D-02-0.188D-01-0.139D+00 0.874D-01 0.106D+01
 Gap=     0.289 Goal=   None    Shift=    0.000
 Gap=     0.320 Goal=   None    Shift=    0.000
 RMSDP=1.90D-07 MaxDP=7.99D-06 DE=-6.10D-09 OVMax= 3.29D-05

 Cycle  12  Pass 1  IDiag  1:
 RMSU=  7.94D-08    CP:  9.66D-01  1.16D+00  9.33D-01  7.75D-01  1.26D+00
                    CP:  1.47D+00  1.38D+00  1.19D+00  1.42D+00  1.25D+00
                    CP:  1.36D+00
 E= -307.003496625495     Delta-E=       -0.000000001280 Rises=F Damp=F
 DIIS: error= 4.18D-07 at cycle  12 NSaved=  12.
 NSaved=12 IEnMin=12 EnMin= -307.003496625495     IErMin=12 ErrMin= 4.18D-07
 ErrMax= 4.18D-07  0.00D+00 EMaxC= 1.00D-01 BMatC= 2.04D-10 BMatP= 1.25D-09
 IDIUse=1 WtCom= 1.00D+00 WtEn= 0.00D+00
 Coeff-Com:  0.124D-04-0.246D-04-0.116D-03-0.318D-03-0.416D-03 0.584D-03
 Coeff-Com:  0.533D-02 0.550D-02-0.244D-01-0.122D+00 0.110D+00 0.103D+01
 Coeff:      0.124D-04-0.246D-04-0.116D-03-0.318D-03-0.416D-03 0.584D-03
 Coeff:      0.533D-02 0.550D-02-0.244D-01-0.122D+00 0.110D+00 0.103D+01
 Gap=     0.289 Goal=   None    Shift=    0.000
 Gap=     0.320 Goal=   None    Shift=    0.000
 RMSDP=7.44D-08 MaxDP=2.44D-06 DE=-1.28D-09 OVMax= 1.24D-05

 Cycle  13  Pass 1  IDiag  1:
 RMSU=  3.47D-08    CP:  9.66D-01  1.16D+00  9.33D-01  7.75D-01  1.26D+00
                    CP:  1.47D+00  1.38D+00  1.19D+00  1.42D+00  1.28D+00
                    CP:  1.52D+00  1.35D+00
 E= -307.003496625706     Delta-E=       -0.000000000210 Rises=F Damp=F
 DIIS: error= 1.71D-07 at cycle  13 NSaved=  13.
 NSaved=13 IEnMin=13 EnMin= -307.003496625706     IErMin=13 ErrMin= 1.71D-07
 ErrMax= 1.71D-07  0.00D+00 EMaxC= 1.00D-01 BMatC= 4.86D-11 BMatP= 2.04D-10
 IDIUse=1 WtCom= 1.00D+00 WtEn= 0.00D+00
 Coeff-Com: -0.614D-05 0.138D-04 0.451D-04 0.761D-04-0.139D-03-0.453D-03
 Coeff-Com: -0.640D-03 0.473D-02 0.220D-01-0.538D-01-0.187D+00 0.283D+00
 Coeff-Com:  0.932D+00
 Coeff:     -0.614D-05 0.138D-04 0.451D-04 0.761D-04-0.139D-03-0.453D-03
 Coeff:     -0.640D-03 0.473D-02 0.220D-01-0.538D-01-0.187D+00 0.283D+00
 Coeff:      0.932D+00
 Gap=     0.289 Goal=   None    Shift=    0.000
 Gap=     0.320 Goal=   None    Shift=    0.000
 RMSDP=3.45D-08 MaxDP=1.28D-06 DE=-2.10D-10 OVMax= 5.71D-06

 Cycle  14  Pass 1  IDiag  1:
 RMSU=  1.46D-08    CP:  9.66D-01  1.16D+00  9.33D-01  7.75D-01  1.26D+00
                    CP:  1.47D+00  1.38D+00  1.19D+00  1.43D+00  1.29D+00
                    CP:  1.58D+00  1.60D+00  1.28D+00
 E= -307.003496625749     Delta-E=       -0.000000000043 Rises=F Damp=F
 DIIS: error= 7.02D-08 at cycle  14 NSaved=  14.
 NSaved=14 IEnMin=14 EnMin= -307.003496625749     IErMin=14 ErrMin= 7.02D-08
 ErrMax= 7.02D-08  0.00D+00 EMaxC= 1.00D-01 BMatC= 5.81D-12 BMatP= 4.86D-11
 IDIUse=1 WtCom= 1.00D+00 WtEn= 0.00D+00
 Coeff-Com: -0.268D-05 0.543D-05 0.259D-04 0.600D-04 0.362D-04-0.149D-03
 Coeff-Com: -0.948D-03-0.346D-03 0.749D-02 0.119D-01-0.404D-01-0.132D+00
 Coeff-Com:  0.108D+00 0.105D+01
 Coeff:     -0.268D-05 0.543D-05 0.259D-04 0.600D-04 0.362D-04-0.149D-03
 Coeff:     -0.948D-03-0.346D-03 0.749D-02 0.119D-01-0.404D-01-0.132D+00
 Coeff:      0.108D+00 0.105D+01
 Gap=     0.289 Goal=   None    Shift=    0.000
 Gap=     0.320 Goal=   None    Shift=    0.000
 RMSDP=1.28D-08 MaxDP=5.04D-07 DE=-4.30D-11 OVMax= 1.75D-06

 Cycle  15  Pass 1  IDiag  1:
 RMSU=  5.97D-09    CP:  9.66D-01  1.16D+00  9.33D-01  7.75D-01  1.26D+00
                    CP:  1.47D+00  1.38D+00  1.19D+00  1.43D+00  1.29D+00
                    CP:  1.58D+00  1.68D+00  1.50D+00  1.31D+00
 E= -307.003496625748     Delta-E=        0.000000000001 Rises=F Damp=F
 DIIS: error= 2.84D-08 at cycle  15 NSaved=  15.
 NSaved=15 IEnMin=14 EnMin= -307.003496625749     IErMin=15 ErrMin= 2.84D-08
 ErrMax= 2.84D-08  0.00D+00 EMaxC= 1.00D-01 BMatC= 8.34D-13 BMatP= 5.81D-12
 IDIUse=1 WtCom= 1.00D+00 WtEn= 0.00D+00
 Coeff-Com:  0.585D-06-0.123D-05-0.203D-05-0.405D-05 0.162D-04 0.342D-04
 Coeff-Com: -0.370D-05-0.522D-03-0.185D-02 0.685D-02 0.182D-01-0.397D-01
 Coeff-Com: -0.103D+00 0.676D-01 0.105D+01
 Coeff:      0.585D-06-0.123D-05-0.203D-05-0.405D-05 0.162D-04 0.342D-04
 Coeff:     -0.370D-05-0.522D-03-0.185D-02 0.685D-02 0.182D-01-0.397D-01
 Coeff:     -0.103D+00 0.676D-01 0.105D+01
 Gap=     0.289 Goal=   None    Shift=    0.000
 Gap=     0.320 Goal=   None    Shift=    0.000
 RMSDP=5.09D-09 MaxDP=2.82D-07 DE= 1.14D-12 OVMax= 6.78D-07

 SCF Done:  E(UM062X) =  -307.003496626     A.U. after   15 cycles
            NFock= 15  Conv=0.51D-08     -V/T= 2.0035
 <Sx>= 0.0000 <Sy>= 0.0000 <Sz>= 0.5000 <S**2>= 0.7555 S= 0.5028
 <L.S>= 0.000000000000E+00
 KE= 3.059326991940D+02 PE=-1.194353730398D+03 EE= 3.433912524519D+02
 Annihilation of the first spin contaminant:
 S**2 before annihilation     0.7555,   after     0.7500
 Leave Link  502 at Mon Mar 11 15:45:57 2019, MaxMem=   671088640 cpu:            1083.4 elap:              54.2
 (Enter /shared/centos7/gaussian/g16/l801.exe)
 DoSCS=F DFT=T ScalE2(SS,OS)=  1.000000  1.000000
 Range of M.O.s used for correlation:     1   267
 NBasis=   267 NAE=    24 NBE=    23 NFC=     0 NFV=     0
 NROrb=    267 NOA=    24 NOB=    23 NVA=   243 NVB=   244

 **** Warning!!: The largest alpha MO coefficient is  0.51531487D+02


 **** Warning!!: The largest beta MO coefficient is  0.46346336D+02

 Leave Link  801 at Mon Mar 11 15:45:57 2019, MaxMem=   671088640 cpu:               0.4 elap:               0.0
 (Enter /shared/centos7/gaussian/g16/l1101.exe)
 Using compressed storage, NAtomX=    13.
 Will process     14 centers per pass.
 Leave Link 1101 at Mon Mar 11 15:45:58 2019, MaxMem=   671088640 cpu:              11.0 elap:               0.6
 (Enter /shared/centos7/gaussian/g16/l1102.exe)
 Symmetrizing basis deriv contribution to polar:
 IMax=3 JMax=2 DiffMx= 0.00D+00
 Leave Link 1102 at Mon Mar 11 15:45:58 2019, MaxMem=   671088640 cpu:               0.5 elap:               0.0
 (Enter /shared/centos7/gaussian/g16/l1110.exe)
 Forming Gx(P) for the SCF density, NAtomX=    13.
 Integral derivatives from FoFJK, PRISM(SPDF).
 Do as many integral derivatives as possible in FoFJK.
 G2DrvN: MDV=     671087568.
 G2DrvN: will do    14 centers at a time, making    1 passes.
 Calling FoFCou, ICntrl=  3107 FMM=F I1Cent=   0 AccDes= 0.00D+00.
 FoFJK:  IHMeth= 1 ICntrl=    3107 DoSepK=F KAlg= 0 I1Cent=           0 FoldK=F
 IRaf=         0 NMat=       1 IRICut=       1 DoRegI=T DoRafI=F ISym2E= 0 IDoP0=0 IntGTp=1.
 FoFCou: FMM=F IPFlag=           0 FMFlag=      100000 FMFlg1=           0
         NFxFlg=           0 DoJE=F BraDBF=F KetDBF=F FulRan=T
         wScrn=  0.000000 ICntrl=      3107 IOpCl=  1 I1Cent=           0 NGrid=           0
         NMat0=    1 NMatS0=      1 NMatT0=    0 NMatD0=    1 NMtDS0=    0 NMtDT0=    0
 Symmetry not used in FoFCou.
 End of G2Drv F.D. properties file   721 does not exist.
 End of G2Drv F.D. properties file   722 does not exist.
 End of G2Drv F.D. properties file   788 does not exist.
 Leave Link 1110 at Mon Mar 11 15:47:29 2019, MaxMem=   671088640 cpu:            1825.0 elap:              91.3
 (Enter /shared/centos7/gaussian/g16/l1002.exe)
 Minotr:  UHF open shell wavefunction.
          IDoAtm=1111111111111
          Direct CPHF calculation.
          Differentiating once with respect to nuclear coordinates.
          Requested convergence is 1.0D-08 RMS, and 1.0D-07 maximum.
          Secondary convergence is 1.0D-12 RMS, and 1.0D-12 maximum.
          NewPWx=T KeepS1=F KeepF1=F KeepIn=T MapXYZ=F SortEE=F KeepMc=T.
         3959 words used for storage of precomputed grid.
 Two-electron integrals replicated using symmetry.
          MDV=     671088640 using IRadAn=       1.
          Solving linear equations simultaneously, MaxMat=     380.
 FoF2E skips out because all densities are zero.
 CalDSu exits because no D1Ps are significant.
 FoFJK:  IHMeth= 1 ICntrl=       0 DoSepK=F KAlg= 0 I1Cent=           0 FoldK=F
 IRaf= 960000000 NMat=      39 IRICut=      97 DoRegI=T DoRafI=T ISym2E= 2 IDoP0=3 IntGTp=3.
 FoFCou: FMM=F IPFlag=           0 FMFlag=      100000 FMFlg1=           0
         NFxFlg=           0 DoJE=F BraDBF=F KetDBF=F FulRan=T
         wScrn=  0.000000 ICntrl=         0 IOpCl=  1 I1Cent=           0 NGrid=           0
         NMat0=   39 NMatS0=     39 NMatT0=    0 NMatD0=   39 NMtDS0=    0 NMtDT0=    0
 Integrals replicated using symmetry in FoFCou.
 Raff kept on since  94.23% of shell-pairs survive, threshold=   0.20 IRatSp=94.
          There are    42 degrees of freedom in the 1st order CPHF.  IDoFFX=6 NUNeed=     0.
     36 vectors produced by pass  0 Test12= 2.72D-14 2.38D-09 XBig12= 1.44D-01 1.08D-01.
 AX will form    36 AO Fock derivatives at one time.
     36 vectors produced by pass  1 Test12= 2.72D-14 2.38D-09 XBig12= 1.94D-02 3.30D-02.
     36 vectors produced by pass  2 Test12= 2.72D-14 2.38D-09 XBig12= 8.09D-04 4.48D-03.
     36 vectors produced by pass  3 Test12= 2.72D-14 2.38D-09 XBig12= 1.05D-05 5.44D-04.
     36 vectors produced by pass  4 Test12= 2.72D-14 2.38D-09 XBig12= 1.67D-07 8.20D-05.
     36 vectors produced by pass  5 Test12= 2.72D-14 2.38D-09 XBig12= 2.34D-09 4.55D-06.
     36 vectors produced by pass  6 Test12= 2.72D-14 2.38D-09 XBig12= 1.98D-11 4.22D-07.
     15 vectors produced by pass  7 Test12= 2.72D-14 2.38D-09 XBig12= 1.53D-13 3.59D-08.
      2 vectors produced by pass  8 Test12= 2.72D-14 2.38D-09 XBig12= 1.17D-15 2.76D-09.
 InvSVY:  IOpt=1 It=  1 EMax= 1.67D-15
 Solved reduced A of dimension   269 with    36 vectors.
 End of Minotr F.D. properties file   721 does not exist.
 End of Minotr F.D. properties file   722 does not exist.
 End of Minotr F.D. properties file   788 does not exist.
 Leave Link 1002 at Mon Mar 11 15:49:54 2019, MaxMem=   671088640 cpu:            2895.2 elap:             144.8
 (Enter /shared/centos7/gaussian/g16/l601.exe)
 Copying SCF densities to generalized density rwf, IOpCl= 1 IROHF=0.

 **********************************************************************

            Population analysis using the SCF density.

 **********************************************************************

 Orbital symmetries:
 Alpha Orbitals:
       Occupied  (A) (A) (A) (A) (A) (A) (A) (A) (A) (A) (A) (A)
                 (A) (A) (A) (A) (A) (A) (A) (A) (A) (A) (A) (A)
       Virtual   (A) (A) (A) (A) (A) (A) (A) (A) (A) (A) (A) (A)
                 (A) (A) (A) (A) (A) (A) (A) (A) (A) (A) (A) (A)
                 (A) (A) (A) (A) (A) (A) (A) (A) (A) (A) (A) (A)
                 (A) (A) (A) (A) (A) (A) (A) (A) (A) (A) (A) (A)
                 (A) (A) (A) (A) (A) (A) (A) (A) (A) (A) (A) (A)
                 (A) (A) (A) (A) (A) (A) (A) (A) (A) (A) (A) (A)
                 (A) (A) (A) (A) (A) (A) (A) (A) (A) (A) (A) (A)
                 (A) (A) (A) (A) (A) (A) (A) (A) (A) (A) (A) (A)
                 (A) (A) (A) (A) (A) (A) (A) (A) (A) (A) (A) (A)
                 (A) (A) (A) (A) (A) (A) (A) (A) (A) (A) (A) (A)
                 (A) (A) (A) (A) (A) (A) (A) (A) (A) (A) (A) (A)
                 (A) (A) (A) (A) (A) (A) (A) (A) (A) (A) (A) (A)
                 (A) (A) (A) (A) (A) (A) (A) (A) (A) (A) (A) (A)
                 (A) (A) (A) (A) (A) (A) (A) (A) (A) (A) (A) (A)
                 (A) (A) (A) (A) (A) (A) (A) (A) (A) (A) (A) (A)
                 (A) (A) (A) (A) (A) (A) (A) (A) (A) (A) (A) (A)
                 (A) (A) (A) (A) (A) (A) (A) (A) (A) (A) (A) (A)
                 (A) (A) (A) (A) (A) (A) (A) (A) (A) (A) (A) (A)
                 (A) (A) (A) (A) (A) (A) (A) (A) (A) (A) (A) (A)
                 (A) (A) (A) (A) (A) (A) (A) (A) (A) (A) (A) (A)
                 (A) (A) (A)
 Beta  Orbitals:
       Occupied  (A) (A) (A) (A) (A) (A) (A) (A) (A) (A) (A) (A)
                 (A) (A) (A) (A) (A) (A) (A) (A) (A) (A) (A)
       Virtual   (A) (A) (A) (A) (A) (A) (A) (A) (A) (A) (A) (A)
                 (A) (A) (A) (A) (A) (A) (A) (A) (A) (A) (A) (A)
                 (A) (A) (A) (A) (A) (A) (A) (A) (A) (A) (A) (A)
                 (A) (A) (A) (A) (A) (A) (A) (A) (A) (A) (A) (A)
                 (A) (A) (A) (A) (A) (A) (A) (A) (A) (A) (A) (A)
                 (A) (A) (A) (A) (A) (A) (A) (A) (A) (A) (A) (A)
                 (A) (A) (A) (A) (A) (A) (A) (A) (A) (A) (A) (A)
                 (A) (A) (A) (A) (A) (A) (A) (A) (A) (A) (A) (A)
                 (A) (A) (A) (A) (A) (A) (A) (A) (A) (A) (A) (A)
                 (A) (A) (A) (A) (A) (A) (A) (A) (A) (A) (A) (A)
                 (A) (A) (A) (A) (A) (A) (A) (A) (A) (A) (A) (A)
                 (A) (A) (A) (A) (A) (A) (A) (A) (A) (A) (A) (A)
                 (A) (A) (A) (A) (A) (A) (A) (A) (A) (A) (A) (A)
                 (A) (A) (A) (A) (A) (A) (A) (A) (A) (A) (A) (A)
                 (A) (A) (A) (A) (A) (A) (A) (A) (A) (A) (A) (A)
                 (A) (A) (A) (A) (A) (A) (A) (A) (A) (A) (A) (A)
                 (A) (A) (A) (A) (A) (A) (A) (A) (A) (A) (A) (A)
                 (A) (A) (A) (A) (A) (A) (A) (A) (A) (A) (A) (A)
                 (A) (A) (A) (A) (A) (A) (A) (A) (A) (A) (A) (A)
                 (A) (A) (A) (A) (A) (A) (A) (A) (A) (A) (A) (A)
                 (A) (A) (A) (A)
 The electronic state is 2-A.
 Alpha  occ. eigenvalues --  -19.67284 -19.61598 -10.67383 -10.59162 -10.55766
 Alpha  occ. eigenvalues --  -10.55723  -1.24266  -1.14753  -0.90329  -0.82163
 Alpha  occ. eigenvalues --   -0.73007  -0.65531  -0.58952  -0.57592  -0.57260
 Alpha  occ. eigenvalues --   -0.53612  -0.49866  -0.49074  -0.44872  -0.43941
 Alpha  occ. eigenvalues --   -0.43690  -0.38259  -0.36973  -0.27443
 Alpha virt. eigenvalues --    0.01475   0.02792   0.03248   0.04172   0.04899
 Alpha virt. eigenvalues --    0.05781   0.06260   0.06578   0.08026   0.09151
 Alpha virt. eigenvalues --    0.09339   0.10766   0.11492   0.13008   0.13681
 Alpha virt. eigenvalues --    0.15652   0.16006   0.18994   0.19554   0.20574
 Alpha virt. eigenvalues --    0.21306   0.22539   0.23547   0.24684   0.25771
 Alpha virt. eigenvalues --    0.27435   0.28367   0.29132   0.29805   0.30030
 Alpha virt. eigenvalues --    0.32803   0.33241   0.34292   0.36372   0.38180
 Alpha virt. eigenvalues --    0.40453   0.43597   0.43849   0.45167   0.49310
 Alpha virt. eigenvalues --    0.49839   0.51273   0.53689   0.54146   0.54776
 Alpha virt. eigenvalues --    0.55773   0.56439   0.58061   0.59091   0.60653
 Alpha virt. eigenvalues --    0.62600   0.63018   0.64728   0.66159   0.67475
 Alpha virt. eigenvalues --    0.68768   0.70537   0.72977   0.74235   0.77558
 Alpha virt. eigenvalues --    0.80560   0.81883   0.82962   0.86486   0.88280
 Alpha virt. eigenvalues --    0.89482   0.93055   0.96569   0.98125   0.98403
 Alpha virt. eigenvalues --    1.02564   1.05795   1.07515   1.07790   1.09666
 Alpha virt. eigenvalues --    1.10661   1.13114   1.15578   1.17209   1.17749
 Alpha virt. eigenvalues --    1.18763   1.21102   1.21798   1.22940   1.23309
 Alpha virt. eigenvalues --    1.25350   1.28888   1.30097   1.33844   1.35654
 Alpha virt. eigenvalues --    1.35815   1.37752   1.39297   1.40886   1.42938
 Alpha virt. eigenvalues --    1.44216   1.44915   1.46579   1.48284   1.49844
 Alpha virt. eigenvalues --    1.54082   1.55943   1.59154   1.59862   1.64275
 Alpha virt. eigenvalues --    1.69672   1.71269   1.71908   1.73669   1.81270
 Alpha virt. eigenvalues --    1.83972   1.93353   2.05432   2.10004   2.16396
 Alpha virt. eigenvalues --    2.29315   2.32491   2.40222   2.44957   2.48202
 Alpha virt. eigenvalues --    2.50838   2.54421   2.59908   2.63469   2.66448
 Alpha virt. eigenvalues --    2.72190   2.72785   2.77314   2.81788   2.83749
 Alpha virt. eigenvalues --    2.87222   2.92244   2.95788   2.96150   2.97137
 Alpha virt. eigenvalues --    2.99057   3.01270   3.02445   3.04487   3.06939
 Alpha virt. eigenvalues --    3.07246   3.11911   3.12263   3.12908   3.15056
 Alpha virt. eigenvalues --    3.18583   3.20288   3.22900   3.24155   3.27530
 Alpha virt. eigenvalues --    3.28841   3.32746   3.33940   3.34379   3.38772
 Alpha virt. eigenvalues --    3.41887   3.42962   3.45628   3.48131   3.50287
 Alpha virt. eigenvalues --    3.53865   3.54184   3.57802   3.61749   3.64331
 Alpha virt. eigenvalues --    3.66503   3.69491   3.72778   3.75545   3.78263
 Alpha virt. eigenvalues --    3.84419   3.86461   3.87582   3.88188   3.93169
 Alpha virt. eigenvalues --    3.98034   4.00126   4.02456   4.06487   4.08389
 Alpha virt. eigenvalues --    4.11038   4.13549   4.16573   4.18720   4.18944
 Alpha virt. eigenvalues --    4.19490   4.26041   4.30090   4.31362   4.34770
 Alpha virt. eigenvalues --    4.35530   4.37114   4.40641   4.43439   4.47324
 Alpha virt. eigenvalues --    4.51233   4.58274   4.64175   4.90877   4.92988
 Alpha virt. eigenvalues --    4.97709   5.08232   5.10844   5.16314   5.21432
 Alpha virt. eigenvalues --    5.21985   5.24428   5.26600   5.37141   5.45176
 Alpha virt. eigenvalues --    5.48981   5.49550   5.50148   5.52939   5.56496
 Alpha virt. eigenvalues --    5.58684   5.61200   5.68476   5.74445   5.78635
 Alpha virt. eigenvalues --    6.00444   6.08231   6.39857   6.46116   6.67668
 Alpha virt. eigenvalues --    6.83262   6.95152   7.05047   7.11475   7.15523
 Alpha virt. eigenvalues --    7.19584   7.25024   7.31776   7.52876   7.66651
 Alpha virt. eigenvalues --    7.76780   7.82762  24.21451  24.43535  24.47571
 Alpha virt. eigenvalues --   24.84549  50.17794  50.31226
  Beta  occ. eigenvalues --  -19.67268 -19.61567 -10.67272 -10.59162 -10.55810
  Beta  occ. eigenvalues --  -10.55052  -1.24172  -1.14661  -0.89088  -0.81484
  Beta  occ. eigenvalues --   -0.70180  -0.65288  -0.58401  -0.57364  -0.56964
  Beta  occ. eigenvalues --   -0.52834  -0.49296  -0.48593  -0.44353  -0.43553
  Beta  occ. eigenvalues --   -0.43386  -0.38132  -0.35978
  Beta virt. eigenvalues --   -0.03996   0.01006   0.02448   0.03196   0.04099
  Beta virt. eigenvalues --    0.04738   0.05925   0.06185   0.07349   0.08012
  Beta virt. eigenvalues --    0.08933   0.09298   0.10561   0.12277   0.12488
  Beta virt. eigenvalues --    0.13040   0.15681   0.16032   0.19191   0.19639
  Beta virt. eigenvalues --    0.20649   0.21271   0.22719   0.23893   0.24711
  Beta virt. eigenvalues --    0.25665   0.27585   0.28240   0.29104   0.29719
  Beta virt. eigenvalues --    0.30294   0.32865   0.33273   0.34342   0.36483
  Beta virt. eigenvalues --    0.38098   0.40616   0.43645   0.44006   0.45169
  Beta virt. eigenvalues --    0.49252   0.49855   0.51760   0.53626   0.54628
  Beta virt. eigenvalues --    0.55106   0.55993   0.56781   0.59159   0.59568
  Beta virt. eigenvalues --    0.61234   0.62632   0.63324   0.64686   0.66259
  Beta virt. eigenvalues --    0.68142   0.69101   0.70749   0.72779   0.73950
  Beta virt. eigenvalues --    0.77614   0.80600   0.81688   0.82908   0.86610
  Beta virt. eigenvalues --    0.88154   0.89469   0.92733   0.96521   0.97231
  Beta virt. eigenvalues --    0.97339   1.02733   1.05822   1.07342   1.07836
  Beta virt. eigenvalues --    1.09286   1.10657   1.13131   1.15626   1.17292
  Beta virt. eigenvalues --    1.17722   1.18950   1.21141   1.21934   1.23019
  Beta virt. eigenvalues --    1.23426   1.25212   1.28847   1.30319   1.33948
  Beta virt. eigenvalues --    1.35757   1.35967   1.37964   1.39495   1.40987
  Beta virt. eigenvalues --    1.42960   1.44520   1.45149   1.47348   1.48581
  Beta virt. eigenvalues --    1.50477   1.54083   1.55920   1.59246   1.61225
  Beta virt. eigenvalues --    1.64338   1.69689   1.71407   1.71943   1.73728
  Beta virt. eigenvalues --    1.81234   1.84029   1.93392   2.05559   2.10141
  Beta virt. eigenvalues --    2.16605   2.29414   2.32662   2.40231   2.45661
  Beta virt. eigenvalues --    2.48431   2.50997   2.54996   2.60796   2.63933
  Beta virt. eigenvalues --    2.68806   2.72732   2.74287   2.78220   2.83698
  Beta virt. eigenvalues --    2.85940   2.90465   2.94402   2.96058   2.97798
  Beta virt. eigenvalues --    2.97990   3.01701   3.03370   3.04271   3.06258
  Beta virt. eigenvalues --    3.08247   3.10283   3.12402   3.13479   3.15196
  Beta virt. eigenvalues --    3.16042   3.21833   3.22003   3.25601   3.27859
  Beta virt. eigenvalues --    3.28489   3.30473   3.34152   3.35789   3.36577
  Beta virt. eigenvalues --    3.41307   3.42462   3.43653   3.48697   3.48837
  Beta virt. eigenvalues --    3.51556   3.54481   3.55499   3.60165   3.63051
  Beta virt. eigenvalues --    3.64749   3.67081   3.70608   3.73882   3.75670
  Beta virt. eigenvalues --    3.79729   3.85578   3.86715   3.87636   3.88218
  Beta virt. eigenvalues --    3.93367   3.99441   4.01893   4.03005   4.07604
  Beta virt. eigenvalues --    4.09623   4.13210   4.13920   4.18621   4.20675
  Beta virt. eigenvalues --    4.21221   4.22556   4.26836   4.30269   4.31492
  Beta virt. eigenvalues --    4.35185   4.35969   4.38578   4.42830   4.43971
  Beta virt. eigenvalues --    4.47889   4.52240   4.59915   4.65649   4.91971
  Beta virt. eigenvalues --    4.95654   5.00764   5.08292   5.11466   5.16389
  Beta virt. eigenvalues --    5.22030   5.22906   5.25568   5.27004   5.37231
  Beta virt. eigenvalues --    5.45457   5.49638   5.51920   5.54114   5.55657
  Beta virt. eigenvalues --    5.56607   5.60266   5.61540   5.68475   5.74467
  Beta virt. eigenvalues --    5.78546   6.00477   6.08261   6.39922   6.46119
  Beta virt. eigenvalues --    6.67685   6.83383   6.95255   7.05035   7.11535
  Beta virt. eigenvalues --    7.15590   7.19635   7.25069   7.31856   7.52930
  Beta virt. eigenvalues --    7.66681   7.76803   7.82784  24.22500  24.43546
  Beta virt. eigenvalues --   24.48082  24.84602  50.17777  50.31199
          Condensed to atoms (all electrons):
               1          2          3          4          5          6
     1  O    8.213883  -0.096891  -0.119735   0.140556   0.157422  -0.026410
     2  O   -0.096891   8.159337   0.013456  -0.043083   0.377946  -0.026705
     3  C   -0.119735   0.013456   5.641971  -0.085921  -0.092235   0.132510
     4  C    0.140556  -0.043083  -0.085921   4.972394  -0.079785   0.003866
     5  C    0.157422   0.377946  -0.092235  -0.079785   5.625625  -0.119143
     6  C   -0.026410  -0.026705   0.132510   0.003866  -0.119143   5.600235
     7  H   -0.001741   0.004158   0.454599   0.003502  -0.072757  -0.045770
     8  H    0.007502  -0.005542   0.476369  -0.000925  -0.082687  -0.021653
     9  H   -0.035819  -0.003866  -0.002876   0.431231   0.004263  -0.001168
    10  H   -0.034529  -0.004290  -0.001800   0.427662   0.001266   0.001872
    11  H   -0.056866   0.003715   0.005329   0.423843   0.008902   0.000000
    12  H    0.000159   0.000143  -0.025169   0.000427  -0.008450   0.414266
    13  H   -0.001826   0.000265  -0.013557  -0.001260  -0.008778   0.406035
               7          8          9         10         11         12
     1  O   -0.001741   0.007502  -0.035819  -0.034529  -0.056866   0.000159
     2  O    0.004158  -0.005542  -0.003866  -0.004290   0.003715   0.000143
     3  C    0.454599   0.476369  -0.002876  -0.001800   0.005329  -0.025169
     4  C    0.003502  -0.000925   0.431231   0.427662   0.423843   0.000427
     5  C   -0.072757  -0.082687   0.004263   0.001266   0.008902  -0.008450
     6  C   -0.045770  -0.021653  -0.001168   0.001872   0.000000   0.414266
     7  H    0.505968  -0.023665   0.000020  -0.000057  -0.000011   0.003208
     8  H   -0.023665   0.480259   0.000012   0.000020   0.000007  -0.005774
     9  H    0.000020   0.000012   0.530057  -0.036813  -0.025248   0.000004
    10  H   -0.000057   0.000020  -0.036813   0.530285  -0.025273  -0.000007
    11  H   -0.000011   0.000007  -0.025248  -0.025273   0.532156  -0.000002
    12  H    0.003208  -0.005774   0.000004  -0.000007  -0.000002   0.463299
    13  H   -0.005533   0.002797  -0.000010   0.000059  -0.000001  -0.024325
              13
     1  O   -0.001826
     2  O    0.000265
     3  C   -0.013557
     4  C   -0.001260
     5  C   -0.008778
     6  C    0.406035
     7  H   -0.005533
     8  H    0.002797
     9  H   -0.000010
    10  H    0.000059
    11  H   -0.000001
    12  H   -0.024325
    13  H    0.465663
          Atomic-Atomic Spin Densities.
               1          2          3          4          5          6
     1  O    0.006143  -0.000844   0.010120   0.001207  -0.013582   0.000772
     2  O   -0.000844   0.023878   0.007234  -0.000667  -0.022264   0.005689
     3  C    0.010120   0.007234   0.002384  -0.000007  -0.066642  -0.043922
     4  C    0.001207  -0.000667  -0.000007   0.000330   0.001068   0.001853
     5  C   -0.013582  -0.022264  -0.066642   0.001068   0.209064  -0.051423
     6  C    0.000772   0.005689  -0.043922   0.001853  -0.051423   1.173585
     7  H    0.003028   0.001205   0.025465   0.000759  -0.023873  -0.018415
     8  H    0.000709   0.001581   0.012943   0.000067  -0.013344  -0.008843
     9  H   -0.001682   0.000691   0.000162   0.000251   0.000676  -0.000387
    10  H    0.000647  -0.000207  -0.000103  -0.000176  -0.000465   0.000560
    11  H    0.000250  -0.000112  -0.000248  -0.000050   0.000190  -0.000032
    12  H    0.000394  -0.000032   0.006169   0.000236  -0.003151  -0.003928
    13  H    0.000685   0.000230   0.004948   0.000123  -0.002451  -0.004290
               7          8          9         10         11         12
     1  O    0.003028   0.000709  -0.001682   0.000647   0.000250   0.000394
     2  O    0.001205   0.001581   0.000691  -0.000207  -0.000112  -0.000032
     3  C    0.025465   0.012943   0.000162  -0.000103  -0.000248   0.006169
     4  C    0.000759   0.000067   0.000251  -0.000176  -0.000050   0.000236
     5  C   -0.023873  -0.013344   0.000676  -0.000465   0.000190  -0.003151
     6  C   -0.018415  -0.008843  -0.000387   0.000560  -0.000032  -0.003928
     7  H    0.024928   0.003176  -0.000024   0.000006  -0.000001  -0.000036
     8  H    0.003176   0.012641  -0.000008   0.000002  -0.000001   0.000791
     9  H   -0.000024  -0.000008   0.000891  -0.000080  -0.000158   0.000000
    10  H    0.000006   0.000002  -0.000080   0.000075  -0.000023  -0.000004
    11  H   -0.000001  -0.000001  -0.000158  -0.000023   0.000179  -0.000000
    12  H   -0.000036   0.000791   0.000000  -0.000004  -0.000000  -0.044497
    13  H    0.001033  -0.000176   0.000002   0.000001  -0.000002   0.004773
              13
     1  O    0.000685
     2  O    0.000230
     3  C    0.004948
     4  C    0.000123
     5  C   -0.002451
     6  C   -0.004290
     7  H    0.001033
     8  H   -0.000176
     9  H    0.000002
    10  H    0.000001
    11  H   -0.000002
    12  H    0.004773
    13  H   -0.045695
 Mulliken charges and spin densities:
               1          2
     1  O   -0.145703   0.007847
     2  O   -0.378644   0.016383
     3  C   -0.382941  -0.041496
     4  C   -0.192508   0.004995
     5  C    0.288410   0.013804
     6  C   -0.317933   1.051221
     7  H    0.178079   0.017251
     8  H    0.173280   0.009539
     9  H    0.140214   0.000335
    10  H    0.141606   0.000235
    11  H    0.133450  -0.000009
    12  H    0.182220  -0.039284
    13  H    0.180471  -0.040820
 Sum of Mulliken charges =  -0.00000   1.00000
 Mulliken charges and spin densities with hydrogens summed into heavy atoms:
               1          2
     1  O   -0.145703   0.007847
     2  O   -0.378644   0.016383
     3  C   -0.031582  -0.014707
     4  C    0.222761   0.005556
     5  C    0.288410   0.013804
     6  C    0.044759   0.971117
 APT charges:
               1
     1  O   -0.027841
     2  O   -0.364134
     3  C   -0.995114
     4  C   -1.220716
     5  C    0.452269
     6  C   -0.859352
     7  H    0.381153
     8  H    0.471832
     9  H    0.408031
    10  H    0.345831
    11  H    0.523053
    12  H    0.501816
    13  H    0.383171
 Sum of APT charges =  -0.00000
 APT charges with hydrogens summed into heavy atoms:
               1
     1  O   -0.027841
     2  O   -0.364134
     3  C   -0.142129
     4  C    0.056199
     5  C    0.452269
     6  C    0.025636
 Electronic spatial extent (au):  <R**2>=            619.3758
 Charge=             -0.0000 electrons
 Dipole moment (field-independent basis, Debye):
    X=              0.1258    Y=             -1.7346    Z=              0.4644  Tot=              1.8001
 Quadrupole moment (field-independent basis, Debye-Ang):
   XX=            -31.8837   YY=            -40.6269   ZZ=            -35.6664
   XY=             -2.5254   XZ=             -0.0192   YZ=              1.7365
 Traceless Quadrupole moment (field-independent basis, Debye-Ang):
   XX=              4.1753   YY=             -4.5679   ZZ=              0.3926
   XY=             -2.5254   XZ=             -0.0192   YZ=              1.7365
 Octapole moment (field-independent basis, Debye-Ang**2):
  XXX=             21.7855  YYY=             -7.1656  ZZZ=              0.7465  XYY=              0.2150
  XXY=              0.3918  XXZ=             -2.0419  XZZ=              0.8796  YZZ=              1.0647
  YYZ=              2.0652  XYZ=              0.7952
 Hexadecapole moment (field-independent basis, Debye-Ang**3):
 XXXX=           -558.1473 YYYY=           -189.9954 ZZZZ=            -84.3502 XXXY=            -20.6260
 XXXZ=              7.0160 YYYX=             -7.3732 YYYZ=              1.8074 ZZZX=             -1.6560
 ZZZY=             -3.3647 XXYY=           -117.8027 XXZZ=           -101.4324 YYZZ=            -46.8028
 XXYZ=              0.9208 YYXZ=              0.9092 ZZXY=             -0.1876
 N-N= 2.380262821262D+02 E-N=-1.194353731866D+03  KE= 3.059326991940D+02
  Exact polarizability:   0.000   0.000   0.000   0.000   0.000   0.000
 Approx polarizability:  62.930   1.661  66.676  -0.260  -2.900  55.494
                          Isotropic Fermi Contact Couplings
        Atom                 a.u.       MegaHertz       Gauss      10(-4) cm-1
     1  O(17)              0.00079      -0.47649      -0.17002      -0.15894
     2  O(17)              0.00295      -1.78628      -0.63739      -0.59584
     3  C(13)             -0.03399     -38.20918     -13.63398     -12.74521
     4  C(13)              0.00024       0.27532       0.09824       0.09184
     5  C(13)              0.08335      93.69888      33.43409      31.25458
     6  C(13)              0.17741     199.44271      71.16612      66.52693
     7  H(1)               0.01040      46.50418      16.59385      15.51212
     8  H(1)               0.00489      21.83700       7.79199       7.28404
     9  H(1)               0.00005       0.23643       0.08437       0.07887
    10  H(1)               0.00008       0.36372       0.12978       0.12132
    11  H(1)               0.00003       0.11557       0.04124       0.03855
    12  H(1)              -0.01563     -69.88288     -24.93595     -23.31042
    13  H(1)              -0.01569     -70.11242     -25.01786     -23.38699
 --------------------------------------------------------
       Center         ----  Spin Dipole Couplings  ----
                      3XX-RR        3YY-RR        3ZZ-RR
 --------------------------------------------------------
     1   Atom       -0.011528      0.010565      0.000963
     2   Atom       -0.007372     -0.022090      0.029461
     3   Atom        0.005480     -0.007154      0.001674
     4   Atom        0.005130     -0.002684     -0.002446
     5   Atom        0.056171     -0.036120     -0.020051
     6   Atom        0.612998     -0.535249     -0.077749
     7   Atom       -0.004642     -0.008435      0.013077
     8   Atom       -0.008439      0.010044     -0.001605
     9   Atom        0.002760     -0.001355     -0.001406
    10   Atom        0.003527     -0.001902     -0.001625
    11   Atom        0.002617     -0.001170     -0.001448
    12   Atom        0.008412     -0.044550      0.036138
    13   Atom       -0.020193      0.073422     -0.053229
 --------------------------------------------------------
                        XY            XZ            YZ
 --------------------------------------------------------
     1   Atom       -0.000073     -0.000407      0.034598
     2   Atom       -0.013477     -0.080282      0.022744
     3   Atom        0.007948     -0.002652      0.005716
     4   Atom       -0.000198     -0.000539      0.000083
     5   Atom        0.022138     -0.037972     -0.006520
     6   Atom        0.097760     -0.736837     -0.066174
     7   Atom        0.001431      0.009893      0.004826
     8   Atom        0.004593      0.001659      0.011274
     9   Atom        0.000681      0.000821      0.000094
    10   Atom        0.000250     -0.001120     -0.000005
    11   Atom       -0.001007      0.000400     -0.000112
    12   Atom       -0.025334      0.022728     -0.052554
    13   Atom       -0.017748     -0.030461     -0.002061
 --------------------------------------------------------


 ---------------------------------------------------------------------------------
              Anisotropic Spin Dipole Couplings in Principal Axis System
 ---------------------------------------------------------------------------------

       Atom             a.u.   MegaHertz   Gauss  10(-4) cm-1        Axes

              Baa    -0.0292     2.111     0.753     0.704  0.0147 -0.6566  0.7541
     1 O(17)  Bbb    -0.0115     0.834     0.298     0.278  0.9999  0.0143 -0.0070
              Bcc     0.0407    -2.945    -1.051    -0.982 -0.0062  0.7541  0.6567
 
              Baa    -0.0716     5.182     1.849     1.728  0.7717 -0.0797  0.6309
     2 O(17)  Bbb    -0.0275     1.987     0.709     0.663  0.1945  0.9741 -0.1148
              Bcc     0.0991    -7.169    -2.558    -2.391 -0.6055  0.2114  0.7673
 
              Baa    -0.0136    -1.824    -0.651    -0.608 -0.4003  0.8332 -0.3815
     3 C(13)  Bbb     0.0043     0.573     0.205     0.191 -0.1817  0.3360  0.9242
              Bcc     0.0093     1.250     0.446     0.417  0.8982  0.4393  0.0169
 
              Baa    -0.0027    -0.364    -0.130    -0.121  0.0041  0.9561 -0.2929
     4 C(13)  Bbb    -0.0025    -0.331    -0.118    -0.110  0.0753  0.2918  0.9535
              Bcc     0.0052     0.694     0.248     0.232  0.9972 -0.0259 -0.0708
 
              Baa    -0.0417    -5.601    -1.999    -1.868 -0.3109  0.9112 -0.2704
     5 C(13)  Bbb    -0.0348    -4.670    -1.666    -1.558  0.2833  0.3604  0.8887
              Bcc     0.0765    10.270     3.665     3.426  0.9073  0.1997 -0.3702
 
              Baa    -0.5486   -73.612   -26.267   -24.554  0.4010  0.5799  0.7091
     6 C(13)  Bbb    -0.5414   -72.650   -25.923   -24.233 -0.3617  0.8114 -0.4590
              Bcc     1.0900   146.262    52.190    48.788  0.8416  0.0724 -0.5352
 
              Baa    -0.0099    -5.272    -1.881    -1.759  0.5118  0.7694 -0.3823
     7 H(1)   Bbb    -0.0085    -4.559    -1.627    -1.521  0.7618 -0.6121 -0.2119
              Bcc     0.0184     9.831     3.508     3.279  0.3971  0.1828  0.8994
 
              Baa    -0.0099    -5.301    -1.892    -1.768  0.8246 -0.4097  0.3901
     8 H(1)   Bbb    -0.0078    -4.187    -1.494    -1.397 -0.5364 -0.3471  0.7693
              Bcc     0.0178     9.488     3.386     3.165  0.1798  0.8436  0.5059
 
              Baa    -0.0016    -0.839    -0.299    -0.280 -0.2224  0.2938  0.9296
     9 H(1)   Bbb    -0.0015    -0.775    -0.276    -0.258 -0.0902  0.9432 -0.3196
              Bcc     0.0030     1.614     0.576     0.538  0.9708  0.1550  0.1833
 
              Baa    -0.0019    -1.034    -0.369    -0.345 -0.1373  0.8683 -0.4766
    10 H(1)   Bbb    -0.0018    -0.978    -0.349    -0.326  0.1558  0.4941  0.8553
              Bcc     0.0038     2.012     0.718     0.671  0.9782  0.0432 -0.2031
 
              Baa    -0.0015    -0.795    -0.284    -0.265 -0.0498  0.1867  0.9812
    11 H(1)   Bbb    -0.0014    -0.757    -0.270    -0.253  0.2543  0.9524 -0.1683
              Bcc     0.0029     1.552     0.554     0.518  0.9658 -0.2412  0.0949
 
              Baa    -0.0726   -38.757   -13.830   -12.928  0.1694  0.9008  0.3998
    12 H(1)   Bbb    -0.0042    -2.252    -0.803    -0.751  0.8895  0.0349 -0.4555
              Bcc     0.0769    41.009    14.633    13.679  0.4243 -0.4328  0.7954
 
              Baa    -0.0722   -38.516   -13.743   -12.847  0.5232  0.0758  0.8489
    13 H(1)   Bbb    -0.0046    -2.447    -0.873    -0.816  0.8311  0.1751 -0.5279
              Bcc     0.0768    40.962    14.616    13.664 -0.1887  0.9816  0.0286
 

 ---------------------------------------------------------------------------------

 No NMR shielding tensors so no spin-rotation constants.
 Leave Link  601 at Mon Mar 11 15:49:54 2019, MaxMem=   671088640 cpu:               9.1 elap:               0.5
 (Enter /shared/centos7/gaussian/g16/l701.exe)
 SCFChk:  SCF convergence  5.09D-09 required  1.00D-08
 ... and contract with generalized density number  0.
 Compute integral second derivatives.
 Entering OneElI...
 Calculate overlap and kinetic energy integrals
    NBasis = 297  MinDer = 2  MaxDer = 2
 Requested accuracy = 0.1000D-12
 PrmmSu-InSpLW:  IPartL=    0 NPrtUS=   20 NPrtUL=    1 DoSpLW=F IThBeg=    0 IThEnd=   19 NThAct=   20.
 PrsmSu:  NPrtUS=  20 ThrOK=T IAlg=1 NPAlg=1 LenDen=           0 ISkipM=0 DoSpLW=F IThBeg=    0 IThEnd=   19.
 Prism:   IPart=     0 DynPar=F LinDyn=F Incr=           1.
 PRISM was handed    33455021 working-precision words and  3484 shell-pairs
 PRISM was handed    33455021 working-precision words and  3484 shell-pairs
 PRISM was handed    33455021 working-precision words and  3484 shell-pairs
 PRISM was handed    33455021 working-precision words and  3484 shell-pairs
 PRISM was handed    33455021 working-precision words and  3484 shell-pairs
 PRISM was handed    33455021 working-precision words and  3484 shell-pairs
 PRISM was handed    33455021 working-precision words and  3484 shell-pairs
 PRISM was handed    33455021 working-precision words and  3484 shell-pairs
 PRISM was handed    33455021 working-precision words and  3484 shell-pairs
 PRISM was handed    33455021 working-precision words and  3484 shell-pairs
 PRISM was handed    33455021 working-precision words and  3484 shell-pairs
 PRISM was handed    33455021 working-precision words and  3484 shell-pairs
 PRISM was handed    33455021 working-precision words and  3484 shell-pairs
 PRISM was handed    33455021 working-precision words and  3484 shell-pairs
 PRISM was handed    33455021 working-precision words and  3484 shell-pairs
 PRISM was handed    33455021 working-precision words and  3484 shell-pairs
 PRISM was handed    33455021 working-precision words and  3484 shell-pairs
 PRISM was handed    33455021 working-precision words and  3484 shell-pairs
 PRISM was handed    33455021 working-precision words and  3484 shell-pairs
 PRISM was handed    33455021 working-precision words and  3484 shell-pairs
 IPart=  5 NShTot=         185 NBatch=          43 AvBLen=         4.3
 IPart=  6 NShTot=         180 NBatch=          38 AvBLen=         4.7
 IPart=  3 NShTot=         193 NBatch=          47 AvBLen=         4.1
 IPart=  2 NShTot=         200 NBatch=          53 AvBLen=         3.8
 IPart=  1 NShTot=         204 NBatch=          56 AvBLen=         3.6
 IPart=  4 NShTot=         189 NBatch=          46 AvBLen=         4.1
 IPart=  8 NShTot=         174 NBatch=          34 AvBLen=         5.1
 IPart= 10 NShTot=         171 NBatch=          32 AvBLen=         5.3
 IPart= 14 NShTot=         162 NBatch=          30 AvBLen=         5.4
 IPart=  9 NShTot=         171 NBatch=          32 AvBLen=         5.3
 IPart=  7 NShTot=         176 NBatch=          34 AvBLen=         5.2
 IPart= 12 NShTot=         166 NBatch=          32 AvBLen=         5.2
 IPart=  0 NShTot=         213 NBatch=          63 AvBLen=         3.4
 IPart= 13 NShTot=         164 NBatch=          30 AvBLen=         5.5
 IPart= 11 NShTot=         168 NBatch=          32 AvBLen=         5.3
 IPart= 17 NShTot=         154 NBatch=          30 AvBLen=         5.1
 IPart= 15 NShTot=         158 NBatch=          30 AvBLen=         5.3
 IPart= 16 NShTot=         154 NBatch=          30 AvBLen=         5.1
 IPart= 18 NShTot=         151 NBatch=          30 AvBLen=         5.0
 IPart= 19 NShTot=         151 NBatch=          30 AvBLen=         5.0
 PrSmSu:  NxtVal=             21.
 Entering OneElI...
 Calculate potential energy integrals
    NBasis = 297  MinDer = 2  MaxDer = 2
 Requested accuracy = 0.1000D-12
 PrmmSu-InSpLW:  IPartL=    0 NPrtUS=   20 NPrtUL=    1 DoSpLW=F IThBeg=    0 IThEnd=   19 NThAct=   20.
 PrsmSu:  NPrtUS=  20 ThrOK=T IAlg=1 NPAlg=1 LenDen=           0 ISkipM=0 DoSpLW=F IThBeg=    0 IThEnd=   19.
 Prism:   IPart=     0 DynPar=F LinDyn=F Incr=          21.
 PRISM was handed    33469122 working-precision words and  3261 shell-pairs
 PRISM was handed    33469122 working-precision words and  3261 shell-pairs
 PRISM was handed    33469122 working-precision words and  3261 shell-pairs
 PRISM was handed    33469122 working-precision words and  3261 shell-pairs
 PRISM was handed    33469122 working-precision words and  3261 shell-pairs
 PRISM was handed    33469122 working-precision words and  3261 shell-pairs
 PRISM was handed    33469122 working-precision words and  3261 shell-pairs
 PRISM was handed    33469122 working-precision words and  3261 shell-pairs
 PRISM was handed    33469122 working-precision words and  3261 shell-pairs
 PRISM was handed    33469122 working-precision words and  3261 shell-pairs
 PRISM was handed    33469122 working-precision words and  3261 shell-pairs
 PRISM was handed    33469122 working-precision words and  3261 shell-pairs
 PRISM was handed    33469122 working-precision words and  3261 shell-pairs
 PRISM was handed    33469122 working-precision words and  3261 shell-pairs
 PRISM was handed    33469122 working-precision words and  3261 shell-pairs
 PRISM was handed    33469122 working-precision words and  3261 shell-pairs
 PRISM was handed    33469122 working-precision words and  3261 shell-pairs
 PRISM was handed    33469122 working-precision words and  3261 shell-pairs
 PRISM was handed    33469122 working-precision words and  3261 shell-pairs
 PRISM was handed    33469122 working-precision words and  3261 shell-pairs
 IPart=  5 NShTot=        2236 NBatch=         172 AvBLen=        13.0
 IPart=  6 NShTot=        2158 NBatch=         166 AvBLen=        13.0
 IPart=  3 NShTot=        2353 NBatch=         181 AvBLen=        13.0
 IPart=  2 NShTot=        2405 NBatch=         185 AvBLen=        13.0
 IPart=  4 NShTot=        2314 NBatch=         178 AvBLen=        13.0
 IPart=  1 NShTot=        2522 NBatch=         194 AvBLen=        13.0
 IPart= 17 NShTot=        1885 NBatch=         145 AvBLen=        13.0
 IPart=  8 NShTot=        2093 NBatch=         161 AvBLen=        13.0
 IPart=  7 NShTot=        2119 NBatch=         163 AvBLen=        13.0
 IPart= 10 NShTot=        2067 NBatch=         159 AvBLen=        13.0
 IPart=  0 NShTot=        2613 NBatch=         201 AvBLen=        13.0
 IPart= 14 NShTot=        1950 NBatch=         150 AvBLen=        13.0
 IPart= 12 NShTot=        1989 NBatch=         153 AvBLen=        13.0
 IPart= 11 NShTot=        2041 NBatch=         157 AvBLen=        13.0
 IPart=  9 NShTot=        2093 NBatch=         161 AvBLen=        13.0
 IPart= 13 NShTot=        1950 NBatch=         150 AvBLen=        13.0
 IPart= 16 NShTot=        1937 NBatch=         149 AvBLen=        13.0
 IPart= 15 NShTot=        1950 NBatch=         150 AvBLen=        13.0
 IPart= 19 NShTot=        1846 NBatch=         142 AvBLen=        13.0
 IPart= 18 NShTot=        1872 NBatch=         144 AvBLen=        13.0
 PrSmSu:  NxtVal=            421.
 Polarizability after L701:
                1             2             3 
      1  0.000000D+00
      2  0.000000D+00  0.000000D+00
      3  0.000000D+00  0.000000D+00  0.000000D+00
 Dipole Derivatives after L701:
                 1             2             3             4             5 
      1   0.329615D+00  0.567581D-01 -0.155065D+00 -0.382766D+00 -0.300106D-02
      2  -0.609165D-01 -0.178122D+00 -0.253337D-01  0.895638D-01 -0.168795D+00
      3  -0.425865D-01 -0.545876D-01 -0.235016D+00 -0.384627D-01 -0.594872D-01
                 6             7             8             9            10 
      1  -0.564502D-01 -0.945299D+00  0.481961D+00  0.991812D+00 -0.197046D+01
      2  -0.185466D+00  0.134053D+00 -0.841985D+00  0.634019D-01  0.367450D+00
      3  -0.540840D+00  0.189809D+00 -0.280864D-02 -0.119806D+01 -0.292360D-01
                11            12            13            14            15 
      1  -0.143640D-01  0.289305D+00  0.537290D+00 -0.151782D-02 -0.195033D-01
      2  -0.821118D+00 -0.119837D+00 -0.371760D-01  0.307987D-01  0.354031D+00
      3  -0.156609D-01 -0.870565D+00 -0.634583D-01  0.235171D+00  0.788719D+00
                16            17            18            19            20 
      1  -0.767668D+00 -0.485427D+00 -0.127508D+01  0.161359D+00  0.314267D+00
      2   0.117979D+00 -0.107033D+01 -0.186497D+00  0.893072D-02  0.243229D+00
      3  -0.250199D+00  0.300761D-02 -0.740053D+00  0.134126D-01 -0.327249D+00
                21            22            23            24            25 
      1  -0.548307D+00  0.608427D+00 -0.808600D+00 -0.106761D+00  0.747561D+00
      2  -0.138072D+00 -0.258553D+00  0.621397D+00  0.504771D-01  0.449921D-01
      3   0.738871D+00 -0.141930D+00  0.258591D+00  0.185673D+00  0.848446D-01
                26            27            28            29            30 
      1   0.835597D+00  0.551057D+00  0.280723D+00  0.255589D+00 -0.909275D+00
      2   0.210624D+00  0.772223D-01 -0.128035D-01  0.901168D-01  0.121180D+00
      3   0.165212D+00  0.265908D+00 -0.249771D-01 -0.135717D+00  0.666652D+00
                31            32            33            34            35 
      1   0.691918D+00 -0.102826D+01  0.166136D+00  0.731758D+00 -0.563189D+00
      2  -0.303688D+00  0.754766D+00 -0.120292D+00  0.496997D-01  0.118990D+00
      3  -0.178678D-02 -0.348449D-01  0.122474D+00  0.321242D+00 -0.273767D+00
                36            37            38            39 
      1   0.103664D+01 -0.224530D-01  0.960192D+00  0.354926D-01
      2   0.998355D-01 -0.139531D+00  0.101043D+01  0.934973D-02
      3   0.654701D+00 -0.166720D-01  0.242140D+00  0.161535D+00
 Hessian after L701:
                1             2             3             4             5 
      1  0.460699D+01
      2  0.551158D+01  0.868930D+01
      3  0.119815D+01  0.105385D+01  0.160373D+02
      4  0.444143D-01 -0.565764D+00  0.205508D+00  0.135912D+02
      5 -0.601801D+00  0.527626D+00  0.125261D+00 -0.441756D+01  0.283708D+01
      6  0.214472D+00  0.816848D-01  0.606568D-01  0.256830D+01  0.596316D+01
      7  0.487296D+00 -0.874053D-01 -0.331986D-01  0.714829D+00  0.509680D+00
      8 -0.490179D-01  0.463949D-01  0.696667D-02  0.498570D+00 -0.123171D+00
      9  0.809407D-01 -0.417893D-01  0.618276D-01 -0.346461D+00 -0.959465D-01
     10  0.299116D-01  0.405066D+00 -0.200159D+01 -0.508819D-02 -0.430761D+00
     11  0.383086D+00 -0.662614D+01 -0.144877D+00 -0.523643D+00  0.331026D+00
     12 -0.198747D+01 -0.154170D+00 -0.611276D+01  0.608685D-01 -0.956378D-01
     13 -0.555465D+01 -0.522216D+01  0.286273D+00 -0.147176D+02  0.481187D+01
     14 -0.520627D+01 -0.271864D+01 -0.113041D+01  0.485543D+01 -0.367073D+01
     15  0.248260D+00 -0.108924D+01 -0.103402D+02 -0.244976D+01 -0.589903D+01
     16  0.399370D+00  0.657143D-01  0.138269D+00  0.128847D+00  0.248857D+00
     17 -0.392960D-01 -0.243516D+00  0.110807D-02  0.249596D+00  0.402112D-01
     18  0.116822D+00  0.375233D-01 -0.179883D+00  0.444336D-01  0.556556D-01
     19  0.329995D-01  0.141868D-01 -0.734793D-01 -0.258305D-01  0.416453D-01
     20  0.415143D-01 -0.568063D-01 -0.199409D-01  0.513916D-01  0.299801D-01
     21 -0.134377D+00  0.348720D-02  0.407821D-01 -0.729334D-01 -0.100786D+00
     22  0.981847D-01 -0.117711D+00 -0.216335D-01  0.859716D-01  0.364113D-01
     23 -0.139848D+00  0.443984D-01  0.197446D-01 -0.600291D-01 -0.602717D-01
     24 -0.306144D-01  0.216595D-01 -0.487446D-01 -0.405054D-01 -0.129401D-01
     25  0.188732D-01  0.503981D-01  0.189345D+00  0.756870D-01 -0.105348D+00
     26  0.110906D+00  0.140294D+00  0.124829D+00 -0.228864D-01 -0.416513D-01
     27  0.188275D+00  0.131397D+00  0.940594D-01  0.463986D-01 -0.386868D-01
     28 -0.113458D+00 -0.727736D-01 -0.398182D-02  0.348300D-01 -0.798129D-01
     29 -0.261825D-01  0.205229D-01 -0.315341D-01 -0.598378D-01 -0.526933D-02
     30 -0.443395D-01 -0.967276D-02  0.344285D+00 -0.721478D-01  0.811851D-01
     31 -0.135612D+00  0.291545D-02  0.558784D-01  0.216022D-01 -0.863280D-01
     32 -0.524910D-01  0.191223D+00 -0.227716D-01 -0.683401D-01  0.919854D-01
     33  0.706924D-01 -0.375582D-01  0.638661D-01  0.723775D-02 -0.160580D-01
     34  0.480066D-01 -0.108005D-01  0.327138D-01  0.510685D-01  0.480750D-01
     35 -0.254214D-01 -0.151960D-01 -0.109305D-01  0.877871D-02 -0.195130D-01
     36  0.538690D-01 -0.781072D-02  0.431092D-02  0.487221D-01  0.329886D-01
     37  0.376775D-01  0.267564D-01  0.277425D-01  0.138253D-03  0.250708D-01
     38  0.932445D-01  0.532202D-03  0.287029D-01  0.542959D-01  0.626979D-01
     39  0.253167D-01  0.106452D-01 -0.254681D-01  0.334810D-03  0.837285D-03
                6             7             8             9            10 
      6  0.163880D+02
      7 -0.456331D+00  0.115186D+02
      8 -0.187736D+00 -0.117263D+01  0.152873D+02
      9 -0.183569D+00  0.272642D+00 -0.615518D+00  0.150293D+02
     10  0.333886D-01  0.918136D-01  0.946357D-02 -0.637755D-02  0.973124D+01
     11 -0.749549D-01 -0.280762D-01 -0.284140D-01  0.642751D-02  0.290306D+00
     12 -0.356108D+00 -0.204503D-01  0.377391D-02 -0.284538D-01  0.151129D+01
     13 -0.241754D+01 -0.877785D+00  0.832257D+00 -0.115745D+01  0.445251D+00
     14 -0.583686D+01  0.797364D+00 -0.587306D+01 -0.966406D-01 -0.235792D+00
     15 -0.156483D+02 -0.112737D+01 -0.980414D-01 -0.559754D+01 -0.397442D-01
     16  0.117336D+00 -0.438217D+01  0.123358D+01  0.152772D+01  0.900153D-01
     17  0.110067D+00  0.121309D+01 -0.376075D+01  0.174926D+01 -0.134325D-01
     18 -0.146758D+00  0.150671D+01  0.174789D+01 -0.323112D+01 -0.151094D-01
     19 -0.505346D-01 -0.415677D+01  0.390478D-01 -0.761088D-01  0.240633D-01
     20 -0.776968D-01 -0.394420D-01 -0.362293D+01 -0.110070D+01  0.383653D-02
     21  0.535495D-01  0.105437D+00 -0.113878D+01 -0.177597D+01 -0.301124D-01
[...]
 ! R2    R(1,5)                  1.3401         -DE/DX =    0.0                 !
 ! R3    R(2,5)                  1.1986         -DE/DX =    0.0                 !
 ! R4    R(3,5)                  1.5188         -DE/DX =    0.0                 !
 ! R5    R(3,6)                  1.4898         -DE/DX =    0.0                 !
 ! R6    R(3,7)                  1.0909         -DE/DX =    0.0                 !
 ! R7    R(3,8)                  1.0871         -DE/DX =    0.0                 !
 ! R8    R(4,9)                  1.0881         -DE/DX =    0.0                 !
 ! R9    R(4,10)                 1.0882         -DE/DX =    0.0                 !
 ! R10   R(4,11)                 1.0847         -DE/DX =    0.0                 !
 ! R11   R(6,12)                 1.0784         -DE/DX =    0.0                 !
 ! R12   R(6,13)                 1.0783         -DE/DX =    0.0                 !
 ! A1    A(4,1,5)              115.3006         -DE/DX =    0.0                 !
 ! A2    A(5,3,6)              110.2114         -DE/DX =    0.0                 !
 ! A3    A(5,3,7)              107.8957         -DE/DX =    0.0                 !
 ! A4    A(5,3,8)              106.8772         -DE/DX =    0.0                 !
 ! A5    A(6,3,7)              110.6445         -DE/DX =    0.0                 !
 ! A6    A(6,3,8)              111.5406         -DE/DX =    0.0                 !
 ! A7    A(7,3,8)              109.535          -DE/DX =    0.0                 !
 ! A8    A(1,4,9)              110.3354         -DE/DX =    0.0                 !
 ! A9    A(1,4,10)             110.2716         -DE/DX =    0.0                 !
 ! A10   A(1,4,11)             105.9804         -DE/DX =    0.0                 !
 ! A11   A(9,4,10)             108.9229         -DE/DX =    0.0                 !
 ! A12   A(9,4,11)             110.6437         -DE/DX =    0.0                 !
 ! A13   A(10,4,11)            110.669          -DE/DX =    0.0                 !
 ! A14   A(1,5,2)              123.5286         -DE/DX =    0.0                 !
 ! A15   A(1,5,3)              111.1569         -DE/DX =    0.0                 !
 ! A16   A(2,5,3)              125.2951         -DE/DX =    0.0                 !
 ! A17   A(3,6,12)             120.0883         -DE/DX =    0.0                 !
 ! A18   A(3,6,13)             120.0589         -DE/DX =    0.0                 !
 ! A19   A(12,6,13)            118.6667         -DE/DX =    0.0                 !
 ! D1    D(5,1,4,9)             60.5911         -DE/DX =    0.0                 !
 ! D2    D(5,1,4,10)           -59.7783         -DE/DX =    0.0                 !
 ! D3    D(5,1,4,11)          -179.5914         -DE/DX =    0.0                 !
 ! D4    D(4,1,5,2)             -1.0583         -DE/DX =    0.0                 !
 ! D5    D(4,1,5,3)            177.417          -DE/DX =    0.0                 !
 ! D6    D(6,3,5,1)            -73.0496         -DE/DX =    0.0                 !
 ! D7    D(6,3,5,2)            105.3932         -DE/DX =    0.0                 !
 ! D8    D(7,3,5,1)             47.86           -DE/DX =    0.0                 !
 ! D9    D(7,3,5,2)           -133.6972         -DE/DX =    0.0                 !
 ! D10   D(8,3,5,1)            165.5809         -DE/DX =    0.0                 !
 ! D11   D(8,3,5,2)            -15.9763         -DE/DX =    0.0                 !
 ! D12   D(5,3,6,12)           -87.8984         -DE/DX =    0.0                 !
 ! D13   D(5,3,6,13)            79.4931         -DE/DX =    0.0                 !
 ! D14   D(7,3,6,12)           152.8514         -DE/DX =    0.0                 !
 ! D15   D(7,3,6,13)           -39.7571         -DE/DX =    0.0                 !
 ! D16   D(8,3,6,12)            30.6513         -DE/DX =    0.0                 !
 ! D17   D(8,3,6,13)          -161.9572         -DE/DX =    0.0                 !
 --------------------------------------------------------------------------------
 GradGradGradGradGradGradGradGradGradGradGradGradGradGradGradGradGradGrad

 Leave Link  103 at Mon Mar 11 15:59:25 2019, MaxMem=   671088640 cpu:               0.4 elap:               0.0
 (Enter /shared/centos7/gaussian/g16/l9999.exe)

 ----------------------------------------------------------------------

 Electric dipole moment (input orientation):
 (Debye = 10**-18 statcoulomb cm , SI units = C m)
                  (au)            (Debye)         (10**-30 SI)
   Tot        0.708208D+00      0.180008D+01      0.600444D+01
   x          0.494962D-01      0.125807D+00      0.419646D+00
   y         -0.682442D+00     -0.173459D+01     -0.578598D+01
   z          0.182706D+00      0.464393D+00      0.154905D+01

 Dipole polarizability, Alpha (input orientation).
 (esu units = cm**3 , SI units = C**2 m**2 J**-1)
 Alpha(0;0):
               (au)            (10**-24 esu)      (10**-40 SI)
   iso        0.548731D+02      0.813136D+01      0.904736D+01
   aniso      0.157610D+02      0.233553D+01      0.259863D+01
   xx         0.641880D+02      0.951167D+01      0.105832D+02
   yx         0.762587D+00      0.113004D+00      0.125734D+00
   yy         0.543315D+02      0.805109D+01      0.895805D+01
   zx         0.474574D-01      0.703246D-02      0.782467D-02
   zy        -0.452364D+00     -0.670334D-01     -0.745847D-01
   zz         0.460999D+02      0.683130D+01      0.760085D+01

 ----------------------------------------------------------------------

 Dipole orientation:
     8          1.31494590          0.26214407          1.44844218
     8          0.95796370          0.22932040         -2.76476009
     6         -2.76907041          0.93104350         -0.21601187
     6          3.93756766         -0.29205585          1.17314312
     6          0.01710334          0.45847213         -0.71724840
     6         -3.99761331         -1.41587401          0.73702323
     1         -2.91445829          2.44443464          1.17632252
     1         -3.59797635          1.54884901         -1.99114687
     1          4.87342464          1.19373148          0.10320876
     1          4.18844136         -2.08081668          0.19021515
     1          4.69437155         -0.39926930          3.07505783
     1         -4.76498979         -2.77270634         -0.57558467
     1         -3.78995455         -1.95545843          2.69101302

 Electric dipole moment (dipole orientation):
 (Debye = 10**-18 statcoulomb cm , SI units = C m)
                  (au)            (Debye)         (10**-30 SI)
   Tot        0.708208D+00      0.180008D+01      0.600444D+01
   x          0.000000D+00      0.000000D+00      0.000000D+00
   y          0.000000D+00      0.000000D+00      0.000000D+00
   z          0.708208D+00      0.180008D+01      0.600444D+01

 Dipole polarizability, Alpha (dipole orientation).
 (esu units = cm**3 , SI units = C**2 m**2 J**-1)
 Alpha(0;0):
               (au)            (10**-24 esu)      (10**-40 SI)
   iso        0.548731D+02      0.813136D+01      0.904736D+01
   aniso      0.157610D+02      0.233553D+01      0.259863D+01
   xx         0.641495D+02      0.950597D+01      0.105768D+02
   yx         0.131141D+01      0.194332D+00      0.216223D+00
   yy         0.465142D+02      0.689270D+01      0.766916D+01
   zx         0.807212D-01      0.119616D-01      0.133091D-01
   zy        -0.164152D+01     -0.243248D+00     -0.270650D+00
   zz         0.539557D+02      0.799541D+01      0.889609D+01

 ----------------------------------------------------------------------

 Test job not archived.
 1\1\GINC-C0318\Freq\UM062X\6-311+G(2df,2p)\C4H7O2(2)\UNDERKOFFLER.C\11
 -Mar-2019\0\\#P Geom=AllCheck Guess=TCheck SCRF=Check Test GenChk UM06
 2X/6-311+G(2df,2p) Freq\\Gaussian input prepared by ASE\\0,2\O,0.75413
 30518,-0.6650180334,0.2827822854\O,0.4092092731,1.4687361122,-0.295936
 2423\C,-1.4412521115,0.1607212649,0.5476832231\C,2.1106940709,-0.52713
 58403,-0.1343962876\C,-0.0045226867,0.4297595271,0.1352354468\C,-2.120
 0852922,-0.6852809266,-0.4735239811\H,-1.4235214842,-0.3436665185,1.51
 48562841\H,-1.9263362055,1.1280355562,0.6510334302\H,2.6065269598,0.25
 08541842,0.4425650239\H,2.1559076859,-0.2666852071,-1.1899965401\H,2.5
 769252834,-1.4903860735,0.0425914888\H,-2.6115707001,-0.2257110143,-1.
 3162220697\H,-1.9536438447,-1.7505580307,-0.4895940616\\Version=EM64L-
 G16RevA.03\State=2-A\HF=-307.0034966\S2=0.755528\S2-1=0.\S2A=0.750024\
 RMSD=9.544e-09\RMSF=6.134e-07\ZeroPoint=0.1048426\Thermal=0.1124385\Di
 pole=0.0494962,-0.6824419,0.1827064\DipoleDeriv=-1.384971,0.4217637,0.
 0633275,0.505885,-0.9203886,0.115347,0.114287,0.1016138,-0.3273243,-0.
 7454131,-0.2725108,0.0999542,-0.0090594,-1.1051963,0.1627447,0.1163095
 ,0.3150194,-0.4084288,-0.2668419,-0.1098035,0.0071355,-0.1070832,-0.00
 60499,0.0149218,-0.0303242,-0.012736,0.0696274,0.7928131,-0.1182597,-0
 .073442,0.0126006,0.2740922,-0.0004413,-0.1387799,0.034263,0.2918185,1
 .6043101,-0.035984,-0.1292369,-0.4523288,1.6540846,-0.3067542,-0.17854
 34,-0.4467794,0.3265586,-0.2285242,-0.0308635,0.2021794,0.0233683,0.09
 99737,0.0090446,0.2934055,0.0421726,-0.0196877,0.0585608,0.0036987,-0.
 0278751,-0.0012039,0.052906,0.0476968,-0.0228348,0.0272735,-0.0471347,
 0.0251335,0.0238199,0.0076115,0.0372033,-0.0400526,-0.037478,-0.006213
 5,-0.0136505,0.0600557,-0.0352481,0.017248,0.0049521,-0.0872985,0.0052
 605,-0.0653623,-0.025851,-0.069257,0.0053568,-0.0202325,0.0284453,-0.0
 415152,-0.024855,0.0697881,0.0397825,0.0513733,0.0039063,-0.0769326,-0
 .0020036,0.0369361,0.0066286,0.0926633,-0.0536293,0.0215572,-0.0034765
 ,0.0336291,0.0777743,0.0970639,0.0012826,-0.0702257,0.0097248,0.012020
 9,0.0260617,-0.1005974,-0.0031415,0.0005817,0.1053529,0.0342272,-0.049
 4938,0.0003834,-0.0428093,-0.0271208,-0.0687545,-0.0123132,0.0477351\P
 olar=64.1879592,0.7625874,54.3314782,0.0474574,-0.4523635,46.0999238\Q
 uadrupole=3.1042898,-3.3961338,0.2918439,-1.8776658,-0.014265,1.291031
 6\PG=C01 [X(C4H7O2)]\NImag=0\\0.48685106,-0.09709812,0.38953509,-0.076
 59074,-0.07286956,0.12440757,0.02946333,0.02111265,-0.00599616,0.19348
 098,0.02617198,-0.10676882,0.03625419,0.22160796,0.70109746,-0.0073382
 3,0.03720524,0.02078974,-0.11001691,-0.26497740,0.14283122,-0.03722300
 ,0.00785130,0.00883073,-0.01351302,-0.01565772,0.01352154,0.42941678,0
 .03445063,0.00182930,-0.00649091,-0.03772492,-0.01489683,0.01867970,-0
 .07279163,0.59583455,-0.00010114,0.00271072,0.00891791,0.02024200,0.01
 237838,0.01530816,0.00943342,-0.03369343,0.52206877,-0.20331072,-0.010
 68158,0.04016647,-0.00091511,-0.01814488,0.00396703,0.00364405,0.00267
 158,0.00039542,0.48720637,-0.03659048,-0.09121340,0.01751473,0.0028146
 1,-0.00202871,-0.00216200,0.00249524,-0.00338992,0.00178645,-0.0276806
 6,0.62957907,0.04908988,0.01031938,-0.08415304,-0.00242468,0.00364876,
 -0.00672412,-0.00042357,0.00241364,0.00398192,0.03874693,-0.00384389,0
 .58462996,-0.18293541,0.07119425,0.00828361,-0.20908278,-0.21703659,0.
 10138989,-0.15935986,-0.00175949,0.03983255,-0.05154860,0.03920427,0.0
 0185885,0.63500454,0.08113457,-0.20227273,0.02122533,-0.20541965,-0.58
 171323,0.20955251,-0.00912593,-0.07105232,0.00442001,0.03356290,0.0039
 5469,-0.00961014,0.12515640,0.86299023,0.00236930,0.02387508,-0.077512
 47,0.09583160,0.21246137,-0.17288199,0.02099614,-0.00020590,-0.0906709
 1,0.00402838,-0.01077071,0.00438881,-0.14190120,-0.22849951,0.34678007
 ,-0.00020851,0.00017724,0.00008396,0.00107769,0.00060134,0.00338912,-0
 .07995273,-0.03468023,-0.07221447,0.00078152,-0.00001378,0.00093551,-0
 .02241974,-0.01809508,-0.02120560,0.21004017,0.00391155,-0.00119393,-0
 .00081022,0.00114512,0.00216013,0.00111783,-0.02911787,-0.13380626,-0.
 06392718,-0.00047431,0.00005576,0.00059522,-0.01823932,-0.00875044,-0.
 00258630,-0.06316924,0.60900349,0.00245165,-0.00152134,0.00065495,0.00
 382089,0.00258997,-0.00223491,-0.06297636,-0.06113250,-0.14280167,-0.0
 0061357,-0.00006510,0.00012086,-0.01616593,-0.00144514,0.00394084,0.23
 485759,-0.01744487,0.42814983,-0.00011502,0.00057722,-0.00213771,-0.00
 722431,-0.00281419,-0.00138244,-0.04315033,0.00845098,-0.00011739,-0.0
 0006144,-0.00028000,-0.00035754,0.00273562,-0.01621658,0.03186447,-0.0
 0325534,0.00714711,-0.01725154,0.05102663,0.00154247,0.00011483,-0.000
 70680,-0.00296301,0.00052520,-0.00000301,0.00650802,-0.10817953,0.1104
 3048,-0.00039196,0.00003047,-0.00038440,0.00014053,-0.00564249,0.00646
 382,-0.00271996,0.01062769,-0.01730448,0.00030318,0.11315829,-0.000866
 30,-0.00067779,0.00122403,0.00190432,-0.00032662,0.00007240,0.00158743
 ,0.11049990,-0.25270007,0.00052825,-0.00003750,0.00033937,-0.00070476,
 0.00735043,-0.00945613,-0.00585756,0.00818889,-0.02021358,0.00418129,-
 0.12043710,0.27587415,-0.00813122,-0.00098049,0.00257439,0.00344676,-0
 .00128502,-0.00171183,-0.09969892,0.10831462,0.01215489,0.00001184,0.0
 0104336,-0.00054042,-0.01565220,0.03219380,0.00190828,0.00692248,-0.01
 791822,-0.00110020,-0.00020886,-0.00192155,-0.00090683,0.11468115,-0.0
 0115698,0.00061092,-0.00004818,-0.00099559,0.00127974,-0.00015484,0.11
 544166,-0.26527487,-0.01990595,-0.00048926,0.00024608,-0.00007656,-0.0
 0322259,0.00266178,0.00197407,0.00483760,-0.01753494,-0.00225640,0.005
 09263,-0.01006386,-0.00185366,-0.11826171,0.28669446,0.00136942,0.0003
 3343,0.00045421,-0.00089936,0.00021076,-0.00007747,0.01123367,-0.01769
 099,-0.05475853,0.00026026,-0.00022311,0.00057487,0.00438625,-0.008510
 11,-0.00187647,0.00873131,-0.02143594,-0.00065619,-0.01368559,0.023654
 79,0.00532380,-0.01048610,0.02477382,0.05259218,-0.03508241,-0.0218702
 3,-0.01358768,0.00135831,0.00331193,-0.00138905,-0.00004143,0.00054345
 ,0.00060816,-0.09599617,-0.07725192,-0.06030666,0.00203164,-0.00956295
 ,0.00116963,0.00005425,0.00017349,0.00007876,-0.00000754,-0.00003749,-
 0.00003414,-0.00022767,0.00005052,0.00008310,0.11710218,-0.00515131,0.
 00136300,0.00336331,0.00024530,0.00010719,0.00022004,-0.00021566,-0.00
 008336,-0.00052268,-0.08484335,-0.19175262,-0.10813218,0.00205376,0.00
 030108,0.00036341,-0.00006036,-0.00004050,0.00004366,0.00008137,0.0000
 0725,-0.00002754,0.00000976,-0.00000644,-0.00000831,0.09506960,0.20085
 213,0.00893938,0.01125907,0.00948769,0.00137138,0.00004786,-0.00030753
 ,-0.00002501,0.00001232,-0.00042795,-0.06640639,-0.10852382,-0.1348357
 2,-0.00054952,-0.00082869,0.00111407,-0.00007508,-0.00004828,-0.000055
 80,0.00008484,0.00006827,-0.00004291,0.00000173,-0.00001234,-0.0000067
 5,0.06611578,0.11590219,0.13674035,-0.01818047,-0.00605066,0.04083958,
 0.00049375,0.00281945,-0.00095595,-0.00063232,-0.00029858,-0.00086522,
 -0.04922900,0.00161326,-0.00668283,0.00260952,-0.00717874,0.00337419,-
 0.00007203,0.00011246,0.00004467,0.00017575,0.00015650,-0.00019737,-0.
 00010200,0.00008163,-0.00010293,0.00227555,0.00459632,-0.01316736,0.06
 102219,-0.00297333,-0.00063772,0.00305932,-0.00082555,-0.00045729,0.00
 027105,-0.00000929,0.00002083,0.00038092,-0.00061951,-0.06647682,0.062
 96576,0.00142208,0.00168063,-0.00176317,0.00012844,0.00004156,0.000015
 29,-0.00005770,-0.00005285,-0.00000836,0.00000393,-0.00000574,-0.00004
 947,0.00062329,0.00628704,-0.02331071,0.00310029,0.06388050,0.01192513
 ,0.00061375,-0.00560993,-0.00157656,-0.00158029,0.00112125,0.00003874,
 -0.00027404,-0.00020108,0.00260033,0.06071609,-0.30710229,-0.00152471,
 0.00507124,-0.00067472,0.00001404,-0.00004801,-0.00001532,-0.00004955,
 -0.00002832,0.00008684,0.00010307,-0.00002553,0.00003636,-0.00110320,0
 .00489253,-0.01581073,-0.00922051,-0.06933592,0.32991161,-0.03040685,0
 .03513313,-0.00280330,0.00220528,0.00081116,-0.00066450,-0.00076978,0.
 00141717,-0.00017249,-0.09033819,0.09461124,-0.01973799,-0.00434067,-0
 .00629015,0.00315596,0.00009332,0.00015224,0.00011907,0.00005431,0.000
 02005,-0.00000773,-0.00048573,-0.00010132,0.00011686,0.00851816,-0.011
 81780,0.00367437,0.00169933,-0.00075497,-0.00122047,0.11381978,-0.0034
 3708,0.00718771,-0.00122859,0.00172814,0.00071800,-0.00047837,-0.00009
 184,0.00022421,0.00000702,0.10728416,-0.27917188,0.04199770,-0.0023807
 5,-0.00078578,0.00090740,0.00005705,0.00001994,-0.00004087,0.00003934,
 0.00001592,-0.00000351,-0.00005852,0.00002389,0.00001504,0.00887371,-0
 .01705911,0.00544533,0.00109836,-0.00425958,0.00001281,-0.11310373,0.2
 9309126,0.00942977,-0.01188046,0.00126486,-0.00097909,-0.00025827,0.00
 104496,0.00027413,-0.00038552,0.00023101,-0.02376636,0.04550630,-0.061
 27132,0.00202825,0.00202989,-0.00097151,-0.00000526,-0.00002498,-0.000
 02123,-0.00004130,-0.00000202,0.00000400,0.00012488,0.00000583,-0.0000
 3056,0.00836112,-0.01609996,0.00414583,-0.01303439,0.02775900,-0.00173
 052,0.01761033,-0.04665391,0.05731465,-0.00043590,0.00018043,0.0003405
 8,-0.00041648,-0.00047140,0.00078670,-0.00284505,0.00724243,-0.0099037
 5,0.00002762,-0.00005192,-0.00019331,0.00126572,0.00023012,-0.00102789
 ,-0.08215613,0.05988264,-0.12256677,-0.00044161,-0.00167162,0.00031314
 ,0.00054536,-0.00064439,0.00080977,-0.00004290,0.00000789,0.00002596,-
 0.00004885,-0.00002091,0.00002244,-0.00000424,-0.00000364,0.00000118,0
 .08294097,-0.00041451,0.00057076,0.00039109,-0.00021717,-0.00040828,0.
 00060108,-0.00963037,0.00930164,-0.01515025,0.00000738,0.00004953,0.00
 006608,0.00162058,0.00003544,-0.00175446,0.06399868,-0.11368680,0.1012
 8848,-0.00218354,-0.00138282,-0.00260958,0.00070441,0.00127119,0.00062
 680,0.00001259,0.00000920,-0.00001504,-0.00003108,0.00000457,-0.000001
 78,-0.00004151,-0.00000071,0.00000348,-0.06522945,0.10980744,-0.000390
 33,0.00005724,0.00016896,-0.00046684,-0.00051625,0.00040406,-0.0061038
 8,0.00762013,-0.01005017,0.00013495,0.00002213,0.00000784,0.00137389,0
 .00080700,-0.00157235,-0.12847123,0.10068982,-0.22367525,-0.00220004,-
 0.00202058,-0.00192855,0.00043448,0.00057219,0.00065224,-0.00001909,0.
 00000603,0.00000786,-0.00005204,0.00000151,0.00001734,-0.00003750,0.00
 000816,0.00000831,0.13432216,-0.10453266,0.23163498,-0.00028490,0.0004
 5485,-0.00000372,-0.00037440,0.00008598,0.00040462,0.00412561,-0.01583
 600,0.00070802,-0.00027217,0.00008679,0.00003582,0.00169222,-0.0003887
 0,-0.00056325,-0.03090495,0.05639435,-0.02069827,0.00047213,0.00103486
 ,0.00006026,-0.00110100,-0.00063221,-0.00181666,0.00005801,0.00002447,
 0.00000991,-0.00001142,-0.00001678,-0.00000873,-0.00004472,-0.00000520
 ,-0.00000327,0.00161149,0.01140399,0.00147545,0.02503409,-0.00038940,0
 .00087498,0.00034629,-0.00050788,0.00038545,0.00012818,0.00434409,-0.0
 1052745,0.00108552,-0.00020050,0.00011774,0.00004062,0.00184688,-0.001
 40685,-0.00046511,0.04893830,-0.34689570,-0.00272671,-0.00013983,0.000
 84190,-0.00005756,-0.00184438,0.00009780,-0.00169672,0.00006401,0.0000
 1515,0.00000385,-0.00001921,-0.00002514,-0.00001254,-0.00003551,-0.000
 00388,0.00000063,0.00054984,-0.00557117,-0.00271473,-0.05260640,0.3620
 9718,-0.00028778,0.00057523,-0.00009449,-0.00081058,0.00006755,0.00065
 422,0.00361302,-0.01935240,0.00110262,-0.00004170,0.00008044,0.0000428
 6,0.00169282,-0.00156280,-0.00060723,-0.02018233,-0.00426598,-0.043192
 53,0.00109249,0.00026933,0.00141665,-0.00255635,-0.00299245,-0.0022276
 9,0.00002327,-0.00000050,-0.00000840,0.00002016,0.00001478,-0.00002881
 ,-0.00003262,0.00001178,0.00001151,-0.00293021,0.02108677,0.00432472,0
 .02039980,0.00606826,0.03860655\\0.00000018,-0.00000043,-0.00000021,-0
 .00000031,0.00000010,0.00000151,-0.00000015,-0.00000079,0.00000006,0.0
 0000027,0.00000055,-0.00000001,-0.00000041,0.00000063,0.00000030,0.000
 00017,-0.00000002,-0.00000062,-0.00000017,-0.00000151,-0.00000026,-0.0
 0000034,-0.00000093,0.00000080,-0.00000018,0.00000017,0.00000071,0.000
 00014,0.00000138,0.00000022,0.00000023,0.00000044,-0.00000067,0.000000
 18,0.00000051,-0.00000037,0.00000038,-0.00000008,-0.00000146\\\@


 HERE WE GO......
 SLIDING DOWN THE RAZOR BLADE OF LIFE......
                                 TOM LEHRER
 Job cpu time:       0 days  2 hours  4 minutes 20.5 seconds.
 Elapsed time:       0 days  0 hours  6 minutes 13.5 seconds.
 File lengths (MBytes):  RWF=   1392 Int=      0 D2E=      0 Chk=     32 Scr=     32
 Normal termination of Gaussian 16 at Mon Mar 11 15:59:25 2019.
