 Entering Gaussian System, Link 0=g16
 Input=NPWGWQRXHVJJRD-UHFFFAOYSA-N_GeoFreq.com
 Output=NPWGWQRXHVJJRD-UHFFFAOYSA-N_GeoFreq.log
 Initial command:
 /shared/centos7/gaussian/g16/l1.exe "/scratch/underkoffler.c/gaussian_scratch/Gau-33991.inp" -scrdir="/scratch/underkoffler.c/gaussian_scratch/"
 Entering Link 1 = /shared/centos7/gaussian/g16/l1.exe PID=     33992.
  
 Copyright (c) 1988,1990,1992,1993,1995,1998,2003,2009,2016,
            Gaussian, Inc.  All Rights Reserved.
  
 This is part of the Gaussian(R) 16 program.  It is based on
 the Gaussian(R) 09 system (copyright 2009, Gaussian, Inc.),
 the Gaussian(R) 03 system (copyright 2003, Gaussian, Inc.),
 the Gaussian(R) 98 system (copyright 1998, Gaussian, Inc.),
 the Gaussian(R) 94 system (copyright 1995, Gaussian, Inc.),
 the Gaussian 92(TM) system (copyright 1992, Gaussian, Inc.),
 the Gaussian 90(TM) system (copyright 1990, Gaussian, Inc.),
 the Gaussian 88(TM) system (copyright 1988, Gaussian, Inc.),
 the Gaussian 86(TM) system (copyright 1986, Carnegie Mellon
 University), and the Gaussian 82(TM) system (copyright 1983,
 Carnegie Mellon University). Gaussian is a federally registered
 trademark of Gaussian, Inc.
  
 This software contains proprietary and confidential information,
 including trade secrets, belonging to Gaussian, Inc.
  
 This software is provided under written license and may be
 used, copied, transmitted, or stored only in accord with that
 written license.
  
 The following legend is applicable only to US Government
 contracts under FAR:
  
                    RESTRICTED RIGHTS LEGEND
  
 Use, reproduction and disclosure by the US Government is
 subject to restrictions as set forth in subparagraphs (a)
 and (c) of the Commercial Computer Software - Restricted
 Rights clause in FAR 52.227-19.
  
 Gaussian, Inc.
 340 Quinnipiac St., Bldg. 40, Wallingford CT 06492
  
  
 ---------------------------------------------------------------
 Warning -- This program may not be used in any manner that
 competes with the business of Gaussian, Inc. or will provide
 assistance to any competitor of Gaussian, Inc.  The licensee
 of this program is prohibited from giving any competitor of
 Gaussian, Inc. access to this program.  By using this program,
 the user acknowledges that Gaussian, Inc. is engaged in the
 business of creating and licensing software in the field of
 computational chemistry and represents and warrants to the
 licensee that it is not a competitor of Gaussian, Inc. and that
 it will not use this program in any manner prohibited above.
 ---------------------------------------------------------------
  

 Cite this work as:
 Gaussian 16, Revision A.03,
 M. J. Frisch, G. W. Trucks, H. B. Schlegel, G. E. Scuseria, 
 M. A. Robb, J. R. Cheeseman, G. Scalmani, V. Barone, 
 G. A. Petersson, H. Nakatsuji, X. Li, M. Caricato, A. V. Marenich, 
 J. Bloino, B. G. Janesko, R. Gomperts, B. Mennucci, H. P. Hratchian, 
 J. V. Ortiz, A. F. Izmaylov, J. L. Sonnenberg, D. Williams-Young, 
 F. Ding, F. Lipparini, F. Egidi, J. Goings, B. Peng, A. Petrone, 
 T. Henderson, D. Ranasinghe, V. G. Zakrzewski, J. Gao, N. Rega, 
 G. Zheng, W. Liang, M. Hada, M. Ehara, K. Toyota, R. Fukuda, 
 J. Hasegawa, M. Ishida, T. Nakajima, Y. Honda, O. Kitao, H. Nakai, 
 T. Vreven, K. Throssell, J. A. Montgomery, Jr., J. E. Peralta, 
 F. Ogliaro, M. J. Bearpark, J. J. Heyd, E. N. Brothers, K. N. Kudin, 
 V. N. Staroverov, T. A. Keith, R. Kobayashi, J. Normand, 
 K. Raghavachari, A. P. Rendell, J. C. Burant, S. S. Iyengar, 
 J. Tomasi, M. Cossi, J. M. Millam, M. Klene, C. Adamo, R. Cammi, 
 J. W. Ochterski, R. L. Martin, K. Morokuma, O. Farkas, 
 J. B. Foresman, and D. J. Fox, Gaussian, Inc., Wallingford CT, 2016.
 
 ******************************************
 Gaussian 16:  EM64L-G16RevA.03 25-Dec-2016
                 4-Mar-2019 
 ******************************************
 ----------------------------------------------------------------------
 #p m062x/6-311+g(2df,2p) opt=(calcfc,verytight,gdiis,maxcycles=900) fr
 eq iop(7/33=1,2/16=3)
 ----------------------------------------------------------------------

 Warning!  Use of Opt=GDIIS is deprecated since it is seldom a good choice.

 1/6=900,7=1,10=4,18=20,19=11,26=3,38=1/1,3;
 2/9=110,12=2,16=3,17=6,18=5,40=1/2;
 3/5=4,6=6,7=214,11=2,25=1,30=1,71=2,74=-55,140=1/1,2,3;
 4//1;
 5/5=2,38=5/2;
 8/6=4,10=90,11=11/1;
 11/6=1,8=1,9=11,15=111,16=1/1,2,10;
 10/6=1,13=1/2;
 6/7=2,8=2,9=2,10=2,28=1/1;
 7/10=1,18=20,25=1,33=1/1,2,3,16;
 1/6=900,7=1,10=4,18=20,19=11,26=3/3(2);
 2/9=110,16=3/2;
 99//99;
 2/9=110,16=3/2;
 3/5=4,6=6,7=214,11=2,25=1,30=1,71=1,74=-55/1,2,3;
 4/5=5,16=3,69=1/1;
 5/5=2,38=5/2;
 7/33=1/1,2,3,16;
 1/6=900,7=1,18=20,19=11,26=3/3(-5);
 2/9=110,16=3/2;
 6/7=2,8=2,9=2,10=2,19=2,28=1/1;
 99/9=1/99;
 Leave Link    1 at Mon Mar  4 17:33:51 2019, MaxMem=           0 cpu:               0.2 elap:               1.4
 (Enter /shared/centos7/gaussian/g16/l101.exe)
 ------------------------------
 Gaussian input prepared by ASE
 ------------------------------
 Symbolic Z-matrix:
 Charge =  0 Multiplicity = 1
 O                    -66.63572  -37.7589  -95.52132 
 O                    -70.3546  -38.30027  -96.60618 
 O                    -70.77642  -36.08812  -96.63111 
 N                    -67.69968  -37.70502  -96.33809 
 C                    -68.61448  -36.64004  -96.06159 
 C                    -69.89626  -36.99521  -96.75379 
 H                    -68.29268  -35.65359  -96.46231 
 H                    -68.83463  -36.49711  -94.97886 
 H                    -68.12552  -38.63014  -96.49041 
 H                    -66.98377  -38.12526  -94.65689 
 H                    -71.34108  -38.54586  -96.62369 
 
 ITRead=  0  0  0  0  0  0  0  0  0  0  0
 MicOpt= -1 -1 -1 -1 -1 -1 -1 -1 -1 -1 -1
 NAtoms=     11 NQM=       11 NQMF=       0 NMMI=      0 NMMIF=      0
                NMic=       0 NMicF=      0.
                    Isotopes and Nuclear Properties:
 (Nuclear quadrupole moments (NQMom) in fm**2, nuclear magnetic moments (NMagM)
  in nuclear magnetons)

  Atom         1           2           3           4           5           6           7           8           9          10
 IAtWgt=          16          16          16          14          12          12           1           1           1           1
 AtmWgt=  15.9949146  15.9949146  15.9949146  14.0030740  12.0000000  12.0000000   1.0078250   1.0078250   1.0078250   1.0078250
 NucSpn=           0           0           0           2           0           0           1           1           1           1
 AtZEff=  -0.0000000  -0.0000000  -0.0000000  -0.0000000  -0.0000000  -0.0000000  -0.0000000  -0.0000000  -0.0000000  -0.0000000
 NQMom=    0.0000000   0.0000000   0.0000000   2.0440000   0.0000000   0.0000000   0.0000000   0.0000000   0.0000000   0.0000000
 NMagM=    0.0000000   0.0000000   0.0000000   0.4037610   0.0000000   0.0000000   2.7928460   2.7928460   2.7928460   2.7928460
 AtZNuc=   8.0000000   8.0000000   8.0000000   7.0000000   6.0000000   6.0000000   1.0000000   1.0000000   1.0000000   1.0000000

  Atom        11
 IAtWgt=           1
 AtmWgt=   1.0078250
 NucSpn=           1
 AtZEff=  -0.0000000
 NQMom=    0.0000000
 NMagM=    2.7928460
 AtZNuc=   1.0000000
 Leave Link  101 at Mon Mar  4 17:33:51 2019, MaxMem=   104857600 cpu:               0.2 elap:               0.2
 (Enter /shared/centos7/gaussian/g16/l103.exe)

 GradGradGradGradGradGradGradGradGradGradGradGradGradGradGradGradGradGrad
 Berny optimization.
 Initialization pass.
                           ----------------------------
                           !    Initial Parameters    !
                           ! (Angstroms and Degrees)  !
 --------------------------                            --------------------------
 ! Name  Definition              Value          Derivative Info.                !
 --------------------------------------------------------------------------------
 ! R1    R(1,4)                  1.3424         calculate D2E/DX2 analytically  !
 ! R2    R(1,10)                 1.0013         calculate D2E/DX2 analytically  !
 ! R3    R(2,6)                  1.3911         calculate D2E/DX2 analytically  !
 ! R4    R(2,11)                 1.0167         calculate D2E/DX2 analytically  !
 ! R5    R(3,6)                  1.2699         calculate D2E/DX2 analytically  !
 ! R6    R(4,5)                  1.4309         calculate D2E/DX2 analytically  !
 ! R7    R(4,9)                  1.0297         calculate D2E/DX2 analytically  !
 ! R8    R(5,6)                  1.4994         calculate D2E/DX2 analytically  !
 ! R9    R(5,7)                  1.1123         calculate D2E/DX2 analytically  !
 ! R10   R(5,8)                  1.1141         calculate D2E/DX2 analytically  !
 ! A1    A(4,1,10)             105.3347         calculate D2E/DX2 analytically  !
 ! A2    A(6,2,11)             122.9886         calculate D2E/DX2 analytically  !
 ! A3    A(1,4,5)              114.7721         calculate D2E/DX2 analytically  !
 ! A4    A(1,4,9)              112.4392         calculate D2E/DX2 analytically  !
 ! A5    A(5,4,9)              115.649          calculate D2E/DX2 analytically  !
 ! A6    A(4,5,6)              106.321          calculate D2E/DX2 analytically  !
 ! A7    A(4,5,7)              113.9216         calculate D2E/DX2 analytically  !
 ! A8    A(4,5,8)              114.1805         calculate D2E/DX2 analytically  !
 ! A9    A(6,5,7)              106.9217         calculate D2E/DX2 analytically  !
 ! A10   A(6,5,8)              108.0664         calculate D2E/DX2 analytically  !
 ! A11   A(7,5,8)              107.0685         calculate D2E/DX2 analytically  !
 ! A12   A(2,6,3)              115.5653         calculate D2E/DX2 analytically  !
 ! A13   A(2,6,5)              117.0585         calculate D2E/DX2 analytically  !
 ! A14   A(3,6,5)              112.2537         calculate D2E/DX2 analytically  !
 ! D1    D(10,1,4,5)            74.9389         calculate D2E/DX2 analytically  !
 ! D2    D(10,1,4,9)           -60.0            calculate D2E/DX2 analytically  !
 ! D3    D(11,2,6,3)            14.2937         calculate D2E/DX2 analytically  !
 ! D4    D(11,2,6,5)           150.0            calculate D2E/DX2 analytically  !
 ! D5    D(1,4,5,6)           -162.5244         calculate D2E/DX2 analytically  !
 ! D6    D(1,4,5,7)             79.9803         calculate D2E/DX2 analytically  !
 ! D7    D(1,4,5,8)            -43.466          calculate D2E/DX2 analytically  !
 ! D8    D(9,4,5,6)            -29.0583         calculate D2E/DX2 analytically  !
 ! D9    D(9,4,5,7)           -146.5537         calculate D2E/DX2 analytically  !
 ! D10   D(9,4,5,8)             90.0            calculate D2E/DX2 analytically  !
 ! D11   D(4,5,6,2)             45.8837         calculate D2E/DX2 analytically  !
 ! D12   D(4,5,6,3)           -177.0119         calculate D2E/DX2 analytically  !
 ! D13   D(7,5,6,2)            167.9378         calculate D2E/DX2 analytically  !
 ! D14   D(7,5,6,3)            -54.9578         calculate D2E/DX2 analytically  !
 ! D15   D(8,5,6,2)            -77.1044         calculate D2E/DX2 analytically  !
 ! D16   D(8,5,6,3)             60.0            calculate D2E/DX2 analytically  !
 --------------------------------------------------------------------------------
 Trust Radius=3.00D-01 FncErr=1.00D-07 GrdErr=1.00D-06 EigMax=2.50D+02 EigMin=1.00D-04
 Number of steps in this run=    100 maximum allowed number of steps=    100.
 GradGradGradGradGradGradGradGradGradGradGradGradGradGradGradGradGradGrad

 Leave Link  103 at Mon Mar  4 17:33:51 2019, MaxMem=   104857600 cpu:               0.1 elap:               0.1
 (Enter /shared/centos7/gaussian/g16/l202.exe)
                          Input orientation:                          
 ---------------------------------------------------------------------
 Center     Atomic      Atomic             Coordinates (Angstroms)
 Number     Number       Type             X           Y           Z
 ---------------------------------------------------------------------
      1          8           0      -66.635721  -37.758902  -95.521321
      2          8           0      -70.354604  -38.300265  -96.606179
      3          8           0      -70.776416  -36.088118  -96.631112
      4          7           0      -67.699684  -37.705023  -96.338086
      5          6           0      -68.614477  -36.640045  -96.061586
      6          6           0      -69.896265  -36.995208  -96.753793
      7          1           0      -68.292680  -35.653594  -96.462311
      8          1           0      -68.834625  -36.497113  -94.978860
      9          1           0      -68.125515  -38.630141  -96.490411
     10          1           0      -66.983771  -38.125264  -94.656886
     11          1           0      -71.341080  -38.545858  -96.623687
 ---------------------------------------------------------------------
                    Distance matrix (angstroms):
                    1          2          3          4          5
     1  O    0.000000
     2  O    3.911531   0.000000
     3  O    4.600925   2.252142   0.000000
     4  N    1.342395   2.734006   3.488055   0.000000
     5  C    2.336493   2.465960   2.302817   1.430901   0.000000
     6  C    3.568384   1.391057   1.269854   2.345553   1.499425
     7  H    2.839595   3.358139   2.527104   2.139027   1.112304
     8  H    2.592596   2.865286   2.582202   2.143510   1.114087
     9  H    1.979312   2.256337   3.675453   1.029747   2.093671
    10  H    1.001302   3.897804   4.736210   1.874984   2.615006
    11  H    4.896418   1.016739   2.521783   3.748112   3.373789
                    6          7          8          9         10
     6  C    0.000000
     7  H    2.111013   0.000000
     8  H    2.127338   1.790491   0.000000
     9  H    2.424444   2.981370   2.708769   0.000000
    10  H    3.762534   3.328957   2.486001   2.218173   0.000000
    11  H    2.123425   4.205233   3.631134   3.219429   4.799099
                   11
    11  H    0.000000
 Stoichiometry    C2H5NO3
 Framework group  C1[X(C2H5NO3)]
 Deg. of freedom    27
 Full point group                 C1      NOp   1
 Largest Abelian subgroup         C1      NOp   1
 Largest concise Abelian subgroup C1      NOp   1
                         Standard orientation:                         
 ---------------------------------------------------------------------
 Center     Atomic      Atomic             Coordinates (Angstroms)
 Number     Number       Type             X           Y           Z
 ---------------------------------------------------------------------
      1          8           0       -2.491266   -0.021948    0.107581
      2          8           0        1.207378    1.250811    0.093518
      3          8           0        2.035544   -0.843339    0.064884
      4          7           0       -1.264358    0.189171   -0.394567
      5          6           0       -0.264356   -0.727539    0.060530
      6          6           0        1.059337   -0.091184   -0.241404
      7          1           0       -0.279276   -1.708254   -0.464061
      8          1           0       -0.304025   -0.940607    1.153333
      9          1           0       -0.998312    1.183803   -0.377116
     10          1           0       -2.451240    0.308156    1.052057
     11          1           0        2.100229    1.660849    0.355136
 ---------------------------------------------------------------------
 Rotational constants (GHZ):           8.7640287           2.0759578           1.7506489
 Leave Link  202 at Mon Mar  4 17:33:51 2019, MaxMem=   104857600 cpu:               0.0 elap:               0.0
 (Enter /shared/centos7/gaussian/g16/l301.exe)
 Standard basis: 6-311+G(2df,2p) (5D, 7F)
 Ernie: Thresh=  0.10000D-02 Tol=  0.10000D-05 Strict=F.
 There are   279 symmetry adapted cartesian basis functions of A   symmetry.
 There are   249 symmetry adapted basis functions of A   symmetry.
   249 basis functions,   367 primitive gaussians,   279 cartesian basis functions
    24 alpha electrons       24 beta electrons
       nuclear repulsion energy       242.8889878223 Hartrees.
 IExCor= 4336 DFT=T Ex+Corr=M062X ExCW=0 ScaHFX=  0.540000
 ScaDFX=  1.000000  1.000000  1.000000  1.000000 ScalE2=  1.000000  1.000000
 IRadAn=      5 IRanWt=     -1 IRanGd=            0 ICorTp=0 IEmpDi=  4
 NAtoms=   11 NActive=   11 NUniq=   11 SFac= 1.00D+00 NAtFMM=   60 NAOKFM=F Big=F
 Integral buffers will be    131072 words long.
 Raffenetti 2 integral format.
 Two-electron integral symmetry is turned on.
 Leave Link  301 at Mon Mar  4 17:33:52 2019, MaxMem=   104857600 cpu:               0.1 elap:               0.1
 (Enter /shared/centos7/gaussian/g16/l302.exe)
 NPDir=0 NMtPBC=     1 NCelOv=     1 NCel=       1 NClECP=     1 NCelD=      1
         NCelK=      1 NCelE2=     1 NClLst=     1 CellRange=     0.0.
 One-electron integrals computed using PRISM.
 One-electron integral symmetry used in STVInt
 NBasis=   249 RedAO= T EigKep=  7.90D-05  NBF=   249
 NBsUse=   249 1.00D-06 EigRej= -1.00D+00 NBFU=   249
 Precomputing XC quadrature grid using
 IXCGrd= 4 IRadAn=           5 IRanWt=          -1 IRanGd=           0 AccXCQ= 0.00D+00.
 Generated NRdTot=       0 NPtTot=           0 NUsed=           0 NTot=          32
 NSgBfM=   279   279   279   279   279 MxSgAt=    11 MxSgA2=    11.
 Leave Link  302 at Mon Mar  4 17:33:52 2019, MaxMem=   104857600 cpu:               0.4 elap:               0.5
 (Enter /shared/centos7/gaussian/g16/l303.exe)
 DipDrv:  MaxL=1.
 Leave Link  303 at Mon Mar  4 17:33:52 2019, MaxMem=   104857600 cpu:               0.1 elap:               0.1
 (Enter /shared/centos7/gaussian/g16/l401.exe)
 ExpMin= 4.38D-02 ExpMax= 8.59D+03 ExpMxC= 1.30D+03 IAcc=3 IRadAn=         5 AccDes= 0.00D+00
 Harris functional with IExCor= 1009 and IRadAn=       5 diagonalized for initial guess.
 HarFok:  IExCor= 1009 AccDes= 0.00D+00 IRadAn=         5 IDoV= 1 UseB2=F ITyADJ=14
 ICtDFT=  3500011 ScaDFX=  1.000000  1.000000  1.000000  1.000000
 FoFCou: FMM=F IPFlag=           0 FMFlag=      100000 FMFlg1=           0
         NFxFlg=           0 DoJE=T BraDBF=F KetDBF=T FulRan=T
         wScrn=  0.000000 ICntrl=       500 IOpCl=  0 I1Cent=   200000004 NGrid=           0
         NMat0=    1 NMatS0=      1 NMatT0=    0 NMatD0=    1 NMtDS0=    0 NMtDT0=    0
 Petite list used in FoFCou.
 Harris En= -359.355095845266    
 JPrj=0 DoOrth=F DoCkMO=F.
 Leave Link  401 at Mon Mar  4 17:33:58 2019, MaxMem=   104857600 cpu:               6.0 elap:               6.0
 (Enter /shared/centos7/gaussian/g16/l502.exe)
 Integral symmetry usage will be decided dynamically.
 Closed shell SCF:
 Using DIIS extrapolation, IDIIS=  1040.
 NGot=   104857600 LenX=   104697735 LenY=   104619453
 Requested convergence on RMS density matrix=1.00D-08 within 128 cycles.
 Requested convergence on MAX density matrix=1.00D-06.
 Requested convergence on             energy=1.00D-06.
 No special actions if energy rises.
 Fock matrices will be formed incrementally for  20 cycles.

 Cycle   1  Pass 1  IDiag  1:
 FoFJK:  IHMeth= 1 ICntrl=       0 DoSepK=F KAlg= 0 I1Cent=           0 FoldK=F
 IRaf= 970000000 NMat=       1 IRICut=       1 DoRegI=T DoRafI=F ISym2E= 0 IDoP0=0 IntGTp=1.
 FoFCou: FMM=F IPFlag=           0 FMFlag=      100000 FMFlg1=           0
         NFxFlg=           0 DoJE=F BraDBF=F KetDBF=F FulRan=T
         wScrn=  0.000000 ICntrl=         0 IOpCl=  0 I1Cent=           0 NGrid=           0
         NMat0=    1 NMatS0=      1 NMatT0=    0 NMatD0=    1 NMtDS0=    0 NMtDT0=    0
 Symmetry not used in FoFCou.
 E= -359.351530125166    
 DIIS: error= 1.73D-02 at cycle   1 NSaved=   1.
 NSaved= 1 IEnMin= 1 EnMin= -359.351530125166     IErMin= 1 ErrMin= 1.73D-02
 ErrMax= 1.73D-02  0.00D+00 EMaxC= 1.00D-01 BMatC= 2.83D-01 BMatP= 2.83D-01
 IDIUse=3 WtCom= 8.27D-01 WtEn= 1.73D-01
 Coeff-Com:  0.100D+01
 Coeff-En:   0.100D+01
 Coeff:      0.100D+01
 Gap=     0.222 Goal=   None    Shift=    0.000
 GapD=    0.222 DampG=1.000 DampE=0.500 DampFc=0.5000 IDamp=-1.
 Damping current iteration by 5.00D-01
 RMSDP=3.32D-03 MaxDP=9.64D-02              OVMax= 2.53D-01

 Cycle   2  Pass 1  IDiag  1:
 RMSU=  1.66D-03    CP:  9.88D-01
 E= -359.414570089401     Delta-E=       -0.063039964235 Rises=F Damp=T
 DIIS: error= 6.76D-03 at cycle   2 NSaved=   2.
 NSaved= 2 IEnMin= 2 EnMin= -359.414570089401     IErMin= 2 ErrMin= 6.76D-03
 ErrMax= 6.76D-03  0.00D+00 EMaxC= 1.00D-01 BMatC= 3.41D-02 BMatP= 2.83D-01
 IDIUse=3 WtCom= 9.32D-01 WtEn= 6.76D-02
 Coeff-Com:  0.904D-01 0.910D+00
 Coeff-En:   0.232D+00 0.768D+00
 Coeff:      0.100D+00 0.900D+00
 Gap=     0.341 Goal=   None    Shift=    0.000
 RMSDP=9.32D-04 MaxDP=3.48D-02 DE=-6.30D-02 OVMax= 1.73D-01

 Cycle   3  Pass 1  IDiag  1:
 RMSU=  9.19D-04    CP:  9.78D-01  9.29D-01
 E= -359.506135993408     Delta-E=       -0.091565904007 Rises=F Damp=F
 DIIS: error= 7.23D-03 at cycle   3 NSaved=   3.
 NSaved= 3 IEnMin= 3 EnMin= -359.506135993408     IErMin= 2 ErrMin= 6.76D-03
 ErrMax= 7.23D-03  0.00D+00 EMaxC= 1.00D-01 BMatC= 2.44D-02 BMatP= 3.41D-02
 IDIUse=3 WtCom= 9.28D-01 WtEn= 7.23D-02
 Coeff-Com: -0.501D-01 0.462D+00 0.588D+00
 Coeff-En:   0.000D+00 0.000D+00 0.100D+01
 Coeff:     -0.465D-01 0.428D+00 0.618D+00
 Gap=     0.269 Goal=   None    Shift=    0.000
 RMSDP=5.47D-04 MaxDP=1.86D-02 DE=-9.16D-02 OVMax= 5.88D-02

 Cycle   4  Pass 1  IDiag  1:
 RMSU=  4.89D-04    CP:  9.75D-01  9.78D-01  7.50D-01
 E= -359.521183049192     Delta-E=       -0.015047055784 Rises=F Damp=F
 DIIS: error= 2.69D-03 at cycle   4 NSaved=   4.
 NSaved= 4 IEnMin= 4 EnMin= -359.521183049192     IErMin= 4 ErrMin= 2.69D-03
 ErrMax= 2.69D-03  0.00D+00 EMaxC= 1.00D-01 BMatC= 4.90D-03 BMatP= 2.44D-02
 IDIUse=3 WtCom= 9.73D-01 WtEn= 2.69D-02
 Coeff-Com: -0.343D-01 0.950D-01 0.347D+00 0.592D+00
 Coeff-En:   0.000D+00 0.000D+00 0.162D+00 0.838D+00
 Coeff:     -0.333D-01 0.925D-01 0.342D+00 0.599D+00
 Gap=     0.264 Goal=   None    Shift=    0.000
 RMSDP=1.80D-04 MaxDP=7.83D-03 DE=-1.50D-02 OVMax= 1.70D-02

 Cycle   5  Pass 1  IDiag  1:
 RMSU=  9.51D-05    CP:  9.75D-01  9.63D-01  8.41D-01  7.43D-01
 E= -359.524551865699     Delta-E=       -0.003368816506 Rises=F Damp=F
 DIIS: error= 7.31D-04 at cycle   5 NSaved=   5.
 NSaved= 5 IEnMin= 5 EnMin= -359.524551865699     IErMin= 5 ErrMin= 7.31D-04
 ErrMax= 7.31D-04  0.00D+00 EMaxC= 1.00D-01 BMatC= 1.39D-04 BMatP= 4.90D-03
 IDIUse=3 WtCom= 9.93D-01 WtEn= 7.31D-03
 Coeff-Com: -0.109D-01 0.182D-01 0.124D+00 0.265D+00 0.604D+00
 Coeff-En:   0.000D+00 0.000D+00 0.000D+00 0.000D+00 0.100D+01
 Coeff:     -0.108D-01 0.181D-01 0.123D+00 0.263D+00 0.607D+00
 Gap=     0.266 Goal=   None    Shift=    0.000
 RMSDP=3.87D-05 MaxDP=1.46D-03 DE=-3.37D-03 OVMax= 3.42D-03

 Cycle   6  Pass 1  IDiag  1:
 RMSU=  3.09D-05    CP:  9.75D-01  9.70D-01  8.46D-01  7.52D-01  7.92D-01
 E= -359.524660864956     Delta-E=       -0.000108999258 Rises=F Damp=F
 DIIS: error= 1.60D-04 at cycle   6 NSaved=   6.
 NSaved= 6 IEnMin= 6 EnMin= -359.524660864956     IErMin= 6 ErrMin= 1.60D-04
 ErrMax= 1.60D-04  0.00D+00 EMaxC= 1.00D-01 BMatC= 1.02D-05 BMatP= 1.39D-04
 IDIUse=3 WtCom= 9.98D-01 WtEn= 1.60D-03
 Coeff-Com:  0.382D-03-0.447D-02 0.762D-02 0.228D-01 0.213D+00 0.761D+00
 Coeff-En:   0.000D+00 0.000D+00 0.000D+00 0.000D+00 0.000D+00 0.100D+01
 Coeff:      0.382D-03-0.446D-02 0.761D-02 0.228D-01 0.212D+00 0.761D+00
 Gap=     0.266 Goal=   None    Shift=    0.000
 RMSDP=1.52D-05 MaxDP=4.53D-04 DE=-1.09D-04 OVMax= 1.05D-03

 Cycle   7  Pass 1  IDiag  1:
 RMSU=  9.52D-06    CP:  9.75D-01  9.66D-01  8.49D-01  7.59D-01  8.88D-01
                    CP:  1.04D+00
 E= -359.524670899672     Delta-E=       -0.000010034716 Rises=F Damp=F
 DIIS: error= 4.48D-05 at cycle   7 NSaved=   7.
 NSaved= 7 IEnMin= 7 EnMin= -359.524670899672     IErMin= 7 ErrMin= 4.48D-05
 ErrMax= 4.48D-05  0.00D+00 EMaxC= 1.00D-01 BMatC= 1.11D-06 BMatP= 1.02D-05
 IDIUse=1 WtCom= 1.00D+00 WtEn= 0.00D+00
 Coeff-Com:  0.180D-02-0.398D-02-0.107D-01-0.269D-01-0.152D-01 0.144D+00
 Coeff-Com:  0.911D+00
 Coeff:      0.180D-02-0.398D-02-0.107D-01-0.269D-01-0.152D-01 0.144D+00
 Coeff:      0.911D+00
 Gap=     0.266 Goal=   None    Shift=    0.000
 RMSDP=7.04D-06 MaxDP=1.53D-04 DE=-1.00D-05 OVMax= 5.55D-04

 Cycle   8  Pass 1  IDiag  1:
 RMSU=  4.00D-06    CP:  9.75D-01  9.64D-01  8.50D-01  7.58D-01  9.27D-01
                    CP:  1.14D+00  1.12D+00
 E= -359.524672348553     Delta-E=       -0.000001448881 Rises=F Damp=F
 DIIS: error= 1.85D-05 at cycle   8 NSaved=   8.
 NSaved= 8 IEnMin= 8 EnMin= -359.524672348553     IErMin= 8 ErrMin= 1.85D-05
 ErrMax= 1.85D-05  0.00D+00 EMaxC= 1.00D-01 BMatC= 2.36D-07 BMatP= 1.11D-06
 IDIUse=1 WtCom= 1.00D+00 WtEn= 0.00D+00
 Coeff-Com:  0.747D-03-0.126D-02-0.428D-02-0.133D-01-0.300D-01-0.406D-01
 Coeff-Com:  0.372D+00 0.717D+00
 Coeff:      0.747D-03-0.126D-02-0.428D-02-0.133D-01-0.300D-01-0.406D-01
 Coeff:      0.372D+00 0.717D+00
 Gap=     0.266 Goal=   None    Shift=    0.000
 RMSDP=2.42D-06 MaxDP=7.04D-05 DE=-1.45D-06 OVMax= 1.66D-04

 Cycle   9  Pass 1  IDiag  1:
 RMSU=  1.47D-06    CP:  9.75D-01  9.64D-01  8.50D-01  7.58D-01  9.36D-01
                    CP:  1.15D+00  1.24D+00  1.11D+00
 E= -359.524672604171     Delta-E=       -0.000000255618 Rises=F Damp=F
 DIIS: error= 5.48D-06 at cycle   9 NSaved=   9.
 NSaved= 9 IEnMin= 9 EnMin= -359.524672604171     IErMin= 9 ErrMin= 5.48D-06
 ErrMax= 5.48D-06  0.00D+00 EMaxC= 1.00D-01 BMatC= 1.64D-08 BMatP= 2.36D-07
 IDIUse=1 WtCom= 1.00D+00 WtEn= 0.00D+00
 Coeff-Com: -0.663D-04 0.188D-03 0.920D-03 0.113D-02-0.277D-02-0.269D-01
 Coeff-Com: -0.549D-01 0.121D+00 0.961D+00
 Coeff:     -0.663D-04 0.188D-03 0.920D-03 0.113D-02-0.277D-02-0.269D-01
 Coeff:     -0.549D-01 0.121D+00 0.961D+00
 Gap=     0.266 Goal=   None    Shift=    0.000
 RMSDP=1.03D-06 MaxDP=2.44D-05 DE=-2.56D-07 OVMax= 8.01D-05

 Cycle  10  Pass 1  IDiag  1:
 RMSU=  5.34D-07    CP:  9.75D-01  9.64D-01  8.51D-01  7.57D-01  9.38D-01
                    CP:  1.16D+00  1.28D+00  1.26D+00  1.06D+00
 E= -359.524672630199     Delta-E=       -0.000000026028 Rises=F Damp=F
 DIIS: error= 1.46D-06 at cycle  10 NSaved=  10.
 NSaved=10 IEnMin=10 EnMin= -359.524672630199     IErMin=10 ErrMin= 1.46D-06
 ErrMax= 1.46D-06  0.00D+00 EMaxC= 1.00D-01 BMatC= 2.05D-09 BMatP= 1.64D-08
 IDIUse=1 WtCom= 1.00D+00 WtEn= 0.00D+00
 Coeff-Com: -0.814D-04 0.164D-03 0.725D-03 0.150D-02 0.192D-02-0.491D-02
 Coeff-Com: -0.519D-01-0.330D-01 0.329D+00 0.757D+00
 Coeff:     -0.814D-04 0.164D-03 0.725D-03 0.150D-02 0.192D-02-0.491D-02
 Coeff:     -0.519D-01-0.330D-01 0.329D+00 0.757D+00
 Gap=     0.266 Goal=   None    Shift=    0.000
 RMSDP=3.34D-07 MaxDP=9.88D-06 DE=-2.60D-08 OVMax= 1.86D-05

 Cycle  11  Pass 1  IDiag  1:
 RMSU=  1.27D-07    CP:  9.75D-01  9.64D-01  8.51D-01  7.57D-01  9.39D-01
                    CP:  1.15D+00  1.28D+00  1.31D+00  1.19D+00  9.89D-01
 E= -359.524672632568     Delta-E=       -0.000000002368 Rises=F Damp=F
 DIIS: error= 6.12D-07 at cycle  11 NSaved=  11.
 NSaved=11 IEnMin=11 EnMin= -359.524672632568     IErMin=11 ErrMin= 6.12D-07
 ErrMax= 6.12D-07  0.00D+00 EMaxC= 1.00D-01 BMatC= 1.55D-10 BMatP= 2.05D-09
 IDIUse=1 WtCom= 1.00D+00 WtEn= 0.00D+00
 Coeff-Com: -0.156D-04 0.263D-04 0.145D-03 0.330D-03 0.876D-03 0.857D-03
 Coeff-Com: -0.109D-01-0.226D-01 0.948D-02 0.205D+00 0.816D+00
 Coeff:     -0.156D-04 0.263D-04 0.145D-03 0.330D-03 0.876D-03 0.857D-03
 Coeff:     -0.109D-01-0.226D-01 0.948D-02 0.205D+00 0.816D+00
 Gap=     0.266 Goal=   None    Shift=    0.000
 RMSDP=8.27D-08 MaxDP=3.24D-06 DE=-2.37D-09 OVMax= 4.87D-06

 Cycle  12  Pass 1  IDiag  1:
 RMSU=  3.85D-08    CP:  9.75D-01  9.64D-01  8.51D-01  7.57D-01  9.39D-01
                    CP:  1.15D+00  1.28D+00  1.32D+00  1.21D+00  1.05D+00
                    CP:  1.01D+00
 E= -359.524672632762     Delta-E=       -0.000000000195 Rises=F Damp=F
 DIIS: error= 1.52D-07 at cycle  12 NSaved=  12.
 NSaved=12 IEnMin=12 EnMin= -359.524672632762     IErMin=12 ErrMin= 1.52D-07
 ErrMax= 1.52D-07  0.00D+00 EMaxC= 1.00D-01 BMatC= 1.05D-11 BMatP= 1.55D-10
 IDIUse=1 WtCom= 1.00D+00 WtEn= 0.00D+00
 Coeff-Com:  0.391D-05-0.818D-05-0.253D-04-0.555D-04 0.500D-04 0.492D-03
 Coeff-Com:  0.196D-02-0.214D-02-0.270D-01-0.224D-01 0.191D+00 0.858D+00
 Coeff:      0.391D-05-0.818D-05-0.253D-04-0.555D-04 0.500D-04 0.492D-03
 Coeff:      0.196D-02-0.214D-02-0.270D-01-0.224D-01 0.191D+00 0.858D+00
 Gap=     0.266 Goal=   None    Shift=    0.000
 RMSDP=2.44D-08 MaxDP=5.83D-07 DE=-1.95D-10 OVMax= 1.21D-06

 Cycle  13  Pass 1  IDiag  1:
 RMSU=  9.15D-09    CP:  9.75D-01  9.64D-01  8.51D-01  7.57D-01  9.39D-01
                    CP:  1.15D+00  1.28D+00  1.32D+00  1.21D+00  1.08D+00
                    CP:  1.10D+00  1.03D+00
 E= -359.524672632770     Delta-E=       -0.000000000007 Rises=F Damp=F
 DIIS: error= 4.76D-08 at cycle  13 NSaved=  13.
 NSaved=13 IEnMin=13 EnMin= -359.524672632770     IErMin=13 ErrMin= 4.76D-08
 ErrMax= 4.76D-08  0.00D+00 EMaxC= 1.00D-01 BMatC= 1.40D-12 BMatP= 1.05D-11
 IDIUse=1 WtCom= 1.00D+00 WtEn= 0.00D+00
 Coeff-Com:  0.272D-05-0.536D-05-0.207D-04-0.457D-04-0.330D-04 0.146D-03
 Coeff-Com:  0.162D-02 0.858D-03-0.115D-01-0.235D-01 0.153D-01 0.326D+00
 Coeff-Com:  0.692D+00
 Coeff:      0.272D-05-0.536D-05-0.207D-04-0.457D-04-0.330D-04 0.146D-03
 Coeff:      0.162D-02 0.858D-03-0.115D-01-0.235D-01 0.153D-01 0.326D+00
 Coeff:      0.692D+00
 Gap=     0.266 Goal=   None    Shift=    0.000
 RMSDP=5.92D-09 MaxDP=1.95D-07 DE=-7.39D-12 OVMax= 3.72D-07

 SCF Done:  E(RM062X) =  -359.524672633     A.U. after   13 cycles
            NFock= 13  Conv=0.59D-08     -V/T= 2.0041
 KE= 3.580585579180D+02 PE=-1.330836723622D+03 EE= 3.703645052488D+02
 Leave Link  502 at Mon Mar  4 17:38:47 2019, MaxMem=   104857600 cpu:             288.8 elap:             288.8
 (Enter /shared/centos7/gaussian/g16/l801.exe)
 DoSCS=F DFT=T ScalE2(SS,OS)=  1.000000  1.000000
 Range of M.O.s used for correlation:     1   249
 NBasis=   249 NAE=    24 NBE=    24 NFC=     0 NFV=     0
 NROrb=    249 NOA=    24 NOB=    24 NVA=   225 NVB=   225

 **** Warning!!: The largest alpha MO coefficient is  0.29408561D+02

 Leave Link  801 at Mon Mar  4 17:38:47 2019, MaxMem=   104857600 cpu:               0.1 elap:               0.1
 (Enter /shared/centos7/gaussian/g16/l1101.exe)
 Using compressed storage, NAtomX=    11.
 Will process     12 centers per pass.
 Leave Link 1101 at Mon Mar  4 17:38:47 2019, MaxMem=   104857600 cpu:               0.3 elap:               0.3
 (Enter /shared/centos7/gaussian/g16/l1102.exe)
 Symmetrizing basis deriv contribution to polar:
 IMax=3 JMax=2 DiffMx= 0.00D+00
 Leave Link 1102 at Mon Mar  4 17:38:47 2019, MaxMem=   104857600 cpu:               0.1 elap:               0.1
 (Enter /shared/centos7/gaussian/g16/l1110.exe)
 Forming Gx(P) for the SCF density, NAtomX=    11.
 Integral derivatives from FoFJK, PRISM(SPDF).
 Do as many integral derivatives as possible in FoFJK.
 G2DrvN: MDV=     104856672.
 G2DrvN: will do    12 centers at a time, making    1 passes.
 Calling FoFCou, ICntrl=  3107 FMM=F I1Cent=   0 AccDes= 0.00D+00.
 FoFJK:  IHMeth= 1 ICntrl=    3107 DoSepK=F KAlg= 0 I1Cent=           0 FoldK=F
 IRaf=         0 NMat=       1 IRICut=       1 DoRegI=T DoRafI=F ISym2E= 0 IDoP0=0 IntGTp=1.
 FoFCou: FMM=F IPFlag=           0 FMFlag=      100000 FMFlg1=           0
         NFxFlg=           0 DoJE=F BraDBF=F KetDBF=F FulRan=T
         wScrn=  0.000000 ICntrl=      3107 IOpCl=  0 I1Cent=           0 NGrid=           0
         NMat0=    1 NMatS0=      1 NMatT0=    0 NMatD0=    1 NMtDS0=    0 NMtDT0=    0
 Symmetry not used in FoFCou.
 End of G2Drv F.D. properties file   721 does not exist.
 End of G2Drv F.D. properties file   722 does not exist.
 End of G2Drv F.D. properties file   788 does not exist.
 Leave Link 1110 at Mon Mar  4 17:46:59 2019, MaxMem=   104857600 cpu:             491.3 elap:             491.3
 (Enter /shared/centos7/gaussian/g16/l1002.exe)
 Minotr:  Closed shell wavefunction.
          IDoAtm=11111111111
          Direct CPHF calculation.
          Differentiating once with respect to nuclear coordinates.
          Requested convergence is 1.0D-08 RMS, and 1.0D-07 maximum.
          Secondary convergence is 1.0D-12 RMS, and 1.0D-12 maximum.
          NewPWx=T KeepS1=F KeepF1=F KeepIn=T MapXYZ=F SortEE=F KeepMc=T.
         3349 words used for storage of precomputed grid.
 Two-electron integrals replicated using symmetry.
          MDV=     104857600 using IRadAn=       1.
          Solving linear equations simultaneously, MaxMat=     384.
 FoF2E skips out because all densities are zero.
 CalDSu exits because no D1Ps are significant.
 FoFJK:  IHMeth= 1 ICntrl=       0 DoSepK=F KAlg= 0 I1Cent=           0 FoldK=F
 IRaf= 960000000 NMat=      33 IRICut=      82 DoRegI=T DoRafI=T ISym2E= 2 IDoP0=3 IntGTp=3.
 FoFCou: FMM=F IPFlag=           0 FMFlag=      100000 FMFlg1=           0
         NFxFlg=           0 DoJE=F BraDBF=F KetDBF=F FulRan=T
         wScrn=  0.000000 ICntrl=         0 IOpCl=  0 I1Cent=           0 NGrid=           0
         NMat0=   33 NMatS0=     33 NMatT0=    0 NMatD0=   33 NMtDS0=    0 NMtDT0=    0
 Integrals replicated using symmetry in FoFCou.
 Raff kept on since  94.26% of shell-pairs survive, threshold=   0.20 IRatSp=94.
          There are    36 degrees of freedom in the 1st order CPHF.  IDoFFX=6 NUNeed=     0.
     30 vectors produced by pass  0 Test12= 1.50D-14 2.78D-09 XBig12= 6.56D-02 8.33D-02.
 AX will form    30 AO Fock derivatives at one time.
     30 vectors produced by pass  1 Test12= 1.50D-14 2.78D-09 XBig12= 1.04D-02 4.01D-02.
     30 vectors produced by pass  2 Test12= 1.50D-14 2.78D-09 XBig12= 3.92D-04 3.60D-03.
     30 vectors produced by pass  3 Test12= 1.50D-14 2.78D-09 XBig12= 5.72D-06 3.77D-04.
     30 vectors produced by pass  4 Test12= 1.50D-14 2.78D-09 XBig12= 5.12D-08 3.36D-05.
     30 vectors produced by pass  5 Test12= 1.50D-14 2.78D-09 XBig12= 3.45D-10 1.92D-06.
     26 vectors produced by pass  6 Test12= 1.50D-14 2.78D-09 XBig12= 1.97D-12 1.50D-07.
      6 vectors produced by pass  7 Test12= 1.50D-14 2.78D-09 XBig12= 8.78D-15 1.08D-08.
 InvSVY:  IOpt=1 It=  1 EMax= 1.55D-15
 Solved reduced A of dimension   212 with    30 vectors.
 End of Minotr F.D. properties file   721 does not exist.
 End of Minotr F.D. properties file   722 does not exist.
 End of Minotr F.D. properties file   788 does not exist.
 Leave Link 1002 at Mon Mar  4 17:59:03 2019, MaxMem=   104857600 cpu:             724.0 elap:             724.3
 (Enter /shared/centos7/gaussian/g16/l601.exe)
 Copying SCF densities to generalized density rwf, IOpCl= 0 IROHF=0.

 **********************************************************************

            Population analysis using the SCF density.

 **********************************************************************

 Orbital symmetries:
       Occupied  (A) (A) (A) (A) (A) (A) (A) (A) (A) (A) (A) (A)
                 (A) (A) (A) (A) (A) (A) (A) (A) (A) (A) (A) (A)
       Virtual   (A) (A) (A) (A) (A) (A) (A) (A) (A) (A) (A) (A)
                 (A) (A) (A) (A) (A) (A) (A) (A) (A) (A) (A) (A)
                 (A) (A) (A) (A) (A) (A) (A) (A) (A) (A) (A) (A)
                 (A) (A) (A) (A) (A) (A) (A) (A) (A) (A) (A) (A)
                 (A) (A) (A) (A) (A) (A) (A) (A) (A) (A) (A) (A)
                 (A) (A) (A) (A) (A) (A) (A) (A) (A) (A) (A) (A)
                 (A) (A) (A) (A) (A) (A) (A) (A) (A) (A) (A) (A)
                 (A) (A) (A) (A) (A) (A) (A) (A) (A) (A) (A) (A)
                 (A) (A) (A) (A) (A) (A) (A) (A) (A) (A) (A) (A)
                 (A) (A) (A) (A) (A) (A) (A) (A) (A) (A) (A) (A)
                 (A) (A) (A) (A) (A) (A) (A) (A) (A) (A) (A) (A)
                 (A) (A) (A) (A) (A) (A) (A) (A) (A) (A) (A) (A)
                 (A) (A) (A) (A) (A) (A) (A) (A) (A) (A) (A) (A)
                 (A) (A) (A) (A) (A) (A) (A) (A) (A) (A) (A) (A)
                 (A) (A) (A) (A) (A) (A) (A) (A) (A) (A) (A) (A)
                 (A) (A) (A) (A) (A) (A) (A) (A) (A) (A) (A) (A)
                 (A) (A) (A) (A) (A) (A) (A) (A) (A) (A) (A) (A)
                 (A) (A) (A) (A) (A) (A) (A) (A) (A) (A) (A) (A)
                 (A) (A) (A) (A) (A) (A) (A) (A) (A)
 The electronic state is 1-A.
 Alpha  occ. eigenvalues --  -19.68789 -19.66914 -19.63255 -14.79102 -10.70726
 Alpha  occ. eigenvalues --  -10.60485  -1.23207  -1.21975  -1.12530  -0.96265
 Alpha  occ. eigenvalues --   -0.80430  -0.72639  -0.64640  -0.61165  -0.57982
 Alpha  occ. eigenvalues --   -0.56865  -0.52954  -0.51445  -0.47588  -0.46758
 Alpha  occ. eigenvalues --   -0.40144  -0.39267  -0.36348  -0.30510
 Alpha virt. eigenvalues --   -0.03903   0.00980   0.02047   0.03764   0.04425
 Alpha virt. eigenvalues --    0.06253   0.07485   0.07866   0.10119   0.11658
 Alpha virt. eigenvalues --    0.12926   0.14239   0.14617   0.18262   0.19656
 Alpha virt. eigenvalues --    0.20103   0.20621   0.21473   0.22542   0.23047
 Alpha virt. eigenvalues --    0.25222   0.25603   0.25988   0.27410   0.28375
 Alpha virt. eigenvalues --    0.29072   0.29997   0.30581   0.31769   0.32959
 Alpha virt. eigenvalues --    0.35950   0.37071   0.38966   0.40850   0.43375
 Alpha virt. eigenvalues --    0.48099   0.49205   0.53545   0.54394   0.56573
 Alpha virt. eigenvalues --    0.57070   0.59064   0.60149   0.61057   0.61454
 Alpha virt. eigenvalues --    0.64838   0.68149   0.69604   0.72482   0.75753
 Alpha virt. eigenvalues --    0.77605   0.78955   0.81321   0.83597   0.86186
 Alpha virt. eigenvalues --    0.87895   0.89850   0.94571   0.97076   0.98842
 Alpha virt. eigenvalues --    1.01137   1.04666   1.06086   1.07410   1.10945
 Alpha virt. eigenvalues --    1.11627   1.14605   1.15695   1.15946   1.17023
 Alpha virt. eigenvalues --    1.20860   1.22625   1.24725   1.26495   1.29028
 Alpha virt. eigenvalues --    1.29968   1.30697   1.32755   1.36691   1.39141
 Alpha virt. eigenvalues --    1.40204   1.42044   1.47485   1.49104   1.51393
 Alpha virt. eigenvalues --    1.56139   1.56584   1.61894   1.63382   1.66873
 Alpha virt. eigenvalues --    1.70905   1.73055   1.75287   1.79773   1.82140
 Alpha virt. eigenvalues --    1.84181   1.93971   1.95633   1.99204   2.06068
 Alpha virt. eigenvalues --    2.10181   2.13380   2.21620   2.25779   2.31117
 Alpha virt. eigenvalues --    2.32780   2.35951   2.39089   2.47060   2.59917
 Alpha virt. eigenvalues --    2.63351   2.65742   2.68131   2.79067   2.81375
 Alpha virt. eigenvalues --    2.85245   2.89923   2.95303   3.02897   3.06024
 Alpha virt. eigenvalues --    3.08523   3.16928   3.19044   3.20590   3.27063
 Alpha virt. eigenvalues --    3.27965   3.31368   3.38292   3.42460   3.43883
 Alpha virt. eigenvalues --    3.46027   3.48429   3.52018   3.54406   3.56770
 Alpha virt. eigenvalues --    3.57780   3.61227   3.64099   3.66302   3.70401
 Alpha virt. eigenvalues --    3.73851   3.78209   3.83113   3.84674   3.91011
 Alpha virt. eigenvalues --    3.93907   3.96476   3.99468   4.00606   4.03042
 Alpha virt. eigenvalues --    4.07957   4.11111   4.12747   4.16760   4.21762
 Alpha virt. eigenvalues --    4.24012   4.27528   4.30629   4.39830   4.42738
 Alpha virt. eigenvalues --    4.53443   4.58317   4.60815   4.79505   4.87537
 Alpha virt. eigenvalues --    4.93804   5.03634   5.06626   5.06972   5.08121
 Alpha virt. eigenvalues --    5.11028   5.14411   5.16070   5.16943   5.18066
 Alpha virt. eigenvalues --    5.20882   5.23510   5.25233   5.28071   5.31914
 Alpha virt. eigenvalues --    5.34911   5.36361   5.39055   5.45112   5.46964
 Alpha virt. eigenvalues --    5.48315   5.50269   5.51916   5.55591   5.58925
 Alpha virt. eigenvalues --    5.71643   5.80038   5.84655   5.91333   6.06498
 Alpha virt. eigenvalues --    6.09898   6.20492   6.25586   6.38649   6.48424
 Alpha virt. eigenvalues --    6.80058   6.82743   6.85216   6.86358   6.91324
 Alpha virt. eigenvalues --    6.92181   6.99317   7.03535   7.13733   7.15408
 Alpha virt. eigenvalues --    7.18742   7.22312   7.25172   7.40852   7.44879
 Alpha virt. eigenvalues --    7.54376   7.62108   7.68571   7.71852  24.40198
 Alpha virt. eigenvalues --   24.64002  35.85210  50.03577  50.10256  50.17564
          Condensed to atoms (all electrons):
               1          2          3          4          5          6
     1  O    7.857755  -0.004913   0.000870   0.160097  -0.040602   0.016415
     2  O   -0.004913   8.021110  -0.060002   0.035466  -0.105404   0.253651
     3  O    0.000870  -0.060002   8.126004   0.002892  -0.109904   0.437529
     4  N    0.160097   0.035466   0.002892   6.971171   0.075085  -0.040109
     5  C   -0.040602  -0.105404  -0.109904   0.075085   5.227327   0.179535
     6  C    0.016415   0.253651   0.437529  -0.040109   0.179535   4.973841
     7  H    0.004580   0.006373  -0.006010  -0.038915   0.450890  -0.043316
     8  H    0.004205  -0.006672  -0.004244  -0.086243   0.456406  -0.036185
     9  H   -0.038864   0.003844  -0.000598   0.369619  -0.034993  -0.001168
    10  H    0.249513  -0.003188   0.000398  -0.156333   0.040149  -0.005710
    11  H    0.000036   0.252387   0.003083  -0.005858   0.004867  -0.019177
               7          8          9         10         11
     1  O    0.004580   0.004205  -0.038864   0.249513   0.000036
     2  O    0.006373  -0.006672   0.003844  -0.003188   0.252387
     3  O   -0.006010  -0.004244  -0.000598   0.000398   0.003083
     4  N   -0.038915  -0.086243   0.369619  -0.156333  -0.005858
     5  C    0.450890   0.456406  -0.034993   0.040149   0.004867
     6  C   -0.043316  -0.036185  -0.001168  -0.005710  -0.019177
     7  H    0.490352  -0.035360   0.003174  -0.002850   0.000081
     8  H   -0.035360   0.537571  -0.000470   0.016501  -0.000715
     9  H    0.003174  -0.000470   0.474550  -0.010705   0.002669
    10  H   -0.002850   0.016501  -0.010705   0.634165  -0.000225
    11  H    0.000081  -0.000715   0.002669  -0.000225   0.422988
 Mulliken charges:
               1
     1  O   -0.209092
     2  O   -0.392652
     3  O   -0.390019
     4  N   -0.286870
     5  C   -0.143357
     6  C    0.284694
     7  H    0.170999
     8  H    0.155205
     9  H    0.232942
    10  H    0.238286
    11  H    0.339864
 Sum of Mulliken charges =  -0.00000
 Mulliken charges with hydrogens summed into heavy atoms:
               1
     1  O    0.029194
     2  O   -0.052788
     3  O   -0.390019
     4  N   -0.053928
     5  C    0.182846
     6  C    0.284694
 APT charges:
               1
     1  O   -0.661573
     2  O   -0.768823
     3  O   -0.271774
     4  N   -0.188575
     5  C   -0.616975
     6  C    0.093362
     7  H    0.431828
     8  H    0.344326
     9  H    0.386986
    10  H    0.433081
    11  H    0.818137
 Sum of APT charges =  -0.00000
 APT charges with hydrogens summed into heavy atoms:
               1
     1  O   -0.228492
     2  O    0.049314
     3  O   -0.271774
     4  N    0.198411
     5  C    0.159179
     6  C    0.093362
 Electronic spatial extent (au):  <R**2>=            647.5159
 Charge=             -0.0000 electrons
 Dipole moment (field-independent basis, Debye):
    X=              0.2329    Y=              2.3487    Z=              1.9842  Tot=              3.0835
 Quadrupole moment (field-independent basis, Debye-Ang):
   XX=            -41.6820   YY=            -32.9471   ZZ=            -33.9748
   XY=              5.0516   XZ=             -3.8120   YZ=              1.4346
 Traceless Quadrupole moment (field-independent basis, Debye-Ang):
   XX=             -5.4807   YY=              3.2542   ZZ=              2.2265
   XY=              5.0516   XZ=             -3.8120   YZ=              1.4346
 Octapole moment (field-independent basis, Debye-Ang**2):
  XXX=             10.3146  YYY=              9.2135  ZZZ=              6.3291  XYY=              1.7408
  XXY=             24.5320  XXZ=             12.7555  XZZ=             -2.3027  YZZ=              1.1534
  YYZ=              1.5404  XYZ=              1.0460
 Hexadecapole moment (field-independent basis, Debye-Ang**3):
 XXXX=           -604.3383 YYYY=           -144.2717 ZZZZ=            -52.7151 XXXY=             37.0581
 XXXZ=            -19.1661 YYYX=             18.4441 YYYZ=              5.8272 ZZZX=             -8.6003
 ZZZY=              1.6137 XXYY=           -104.6917 XXZZ=            -91.0088 YYZZ=            -33.5580
 XXYZ=             10.3213 YYXZ=              5.6248 ZZXY=             -0.0374
 N-N= 2.428889878223D+02 E-N=-1.330836725509D+03  KE= 3.580585579180D+02
  Exact polarizability:   0.000   0.000   0.000   0.000   0.000   0.000
 Approx polarizability:  58.366  -3.912  58.829   1.113  -1.514  49.040
 No NMR shielding tensors so no spin-rotation constants.
 Leave Link  601 at Mon Mar  4 17:59:03 2019, MaxMem=   104857600 cpu:               0.3 elap:               0.3
 (Enter /shared/centos7/gaussian/g16/l701.exe)
 SCFChk:  SCF convergence  5.92D-09 required  1.00D-08
 ... and contract with generalized density number  0.
 Compute integral second derivatives.
 Entering OneElI...
 Calculate overlap and kinetic energy integrals
    NBasis = 279  MinDer = 2  MaxDer = 2
 Requested accuracy = 0.1000D-12
 PrmmSu-InSpLW:  IPartL=    0 NPrtUS=    1 NPrtUL=    1 DoSpLW=F IThBeg=    0 IThEnd=    0 NThAct=    1.
 PrsmSu:  NPrtUS=   1 ThrOK=F IAlg=1 NPAlg=1 LenDen=           0 ISkipM=0 DoSpLW=F IThBeg=    0 IThEnd=    0.
 Prism:   IPart=     0 DynPar=F LinDyn=F Incr=          26.
 PRISM was handed   104362577 working-precision words and  2678 shell-pairs
 IPart=  0 NShTot=        2678 NBatch=         181 AvBLen=        14.8
 PrSmSu:  NxtVal=             27.
 Entering OneElI...
 Calculate potential energy integrals
    NBasis = 279  MinDer = 2  MaxDer = 2
 Requested accuracy = 0.1000D-12
 PrmmSu-InSpLW:  IPartL=    0 NPrtUS=    1 NPrtUL=    1 DoSpLW=F IThBeg=    0 IThEnd=    0 NThAct=    1.
 PrsmSu:  NPrtUS=   1 ThrOK=F IAlg=1 NPAlg=1 LenDen=           0 ISkipM=0 DoSpLW=F IThBeg=    0 IThEnd=    0.
 Prism:   IPart=     0 DynPar=F LinDyn=F Incr=         280.
 PRISM was handed   104453768 working-precision words and  2546 shell-pairs
 IPart=  0 NShTot=       28006 NBatch=        2546 AvBLen=        11.0
 PrSmSu:  NxtVal=            281.
 Polarizability after L701:
                1             2             3 
      1  0.000000D+00
      2  0.000000D+00  0.000000D+00
      3  0.000000D+00  0.000000D+00  0.000000D+00
 Dipole Derivatives after L701:
                 1             2             3             4             5 
      1  -0.717934D+00 -0.947742D-01  0.936460D+00 -0.958573D+00 -0.501518D+00
      2   0.135552D-02 -0.355555D+00 -0.139578D+00 -0.513451D+00 -0.809750D+00
      3   0.187094D-01 -0.166341D+00 -0.911228D+00 -0.154576D+00 -0.192596D+00
                 6             7             8             9            10 
      1  -0.583426D-01  0.102491D+00 -0.382838D+00  0.419092D+00  0.178622D+00
      2  -0.116922D+00 -0.892280D-01 -0.349772D+00 -0.117356D+00 -0.207204D+00
      3  -0.538148D+00 -0.925996D-01  0.973254D-01 -0.568041D+00  0.326154D-01
                11            12            13            14            15 
      1   0.981200D+00 -0.282424D+00  0.149082D-01 -0.412132D+00  0.272817D+00
      2  -0.839389D+00 -0.271210D-01 -0.119753D+00 -0.930701D+00  0.429348D-01
      3   0.137995D+00  0.950411D-01  0.191485D+00  0.860518D-01 -0.935133D+00
                16            17            18            19            20 
      1  -0.547850D+00  0.448408D+00 -0.909350D+00  0.132207D+00  0.125981D+00
      2   0.139476D+00  0.161946D+00  0.781289D-03 -0.216701D-01  0.878725D+00
      3  -0.139285D+00 -0.136285D+00  0.665991D+00  0.295003D-01  0.180442D+00
                21            22            23            24            25 
      1   0.101347D+00  0.136061D+00  0.307520D-01 -0.128309D+00  0.148707D+00
      2   0.371837D+00  0.874710D-02  0.286406D+00 -0.366268D+00  0.115736D+00
      3   0.284552D+00 -0.192497D-01 -0.114565D+00  0.610512D+00 -0.517575D-01
                26            27            28            29            30 
      1  -0.500803D+00 -0.230346D-02  0.300070D+00 -0.293356D+00 -0.654024D+00
      2   0.782853D+00 -0.405047D-02  0.656411D-01  0.340359D+00  0.120915D+00
      3  -0.182192D+00  0.229397D+00  0.439373D-01  0.190562D+00  0.658814D+00
                31            32            33 
      1   0.121129D+01  0.599081D+00  0.305036D+00
      2   0.620350D+00  0.834879D+00  0.234828D+00
      3   0.141220D+00  0.996027D-01  0.408243D+00
 Hessian after L701:
                1             2             3             4             5 
      1  0.423704D+01
      2 -0.574070D+00  0.129704D+02
      3  0.315026D+01 -0.825378D+00  0.834894D+01
      4  0.229360D+00  0.134037D+00  0.343278D-01  0.918050D+01
      5  0.120512D+00 -0.107465D+00  0.583367D-02 -0.459017D+01  0.208690D+01
      6  0.712902D-02 -0.287221D-02 -0.166061D+00 -0.198626D+01 -0.381578D+01
      7  0.185269D+00 -0.549496D-01  0.196830D-01 -0.482846D+00 -0.127616D+00
      8 -0.617192D-01 -0.891793D-01 -0.636368D-02 -0.161790D+00  0.992392D+00
      9  0.826233D-02 -0.302348D-02 -0.110170D+00 -0.644849D-01 -0.364643D-01
     10 -0.465881D+00  0.935592D+00 -0.297173D+01  0.550166D+00  0.453419D+00
     11  0.791042D+00 -0.799530D+01 -0.298085D+00  0.587402D+00 -0.288787D+00
     12 -0.296973D+01 -0.287326D+00 -0.622264D+01  0.107476D+00  0.378137D-01
     13  0.214740D+00 -0.263805D+00  0.174690D+00  0.264815D+00  0.300524D+00
     14 -0.105644D+00 -0.124463D+00 -0.511292D-01  0.254704D+00  0.135216D+00
     15  0.108338D+00 -0.461252D-01 -0.286566D+00 -0.358858D-01 -0.772821D-01
     16  0.506115D+00 -0.225100D-02 -0.869138D-01 -0.821087D+01  0.174537D+01
     17  0.154339D-01 -0.225840D+00  0.653436D-03  0.167395D+01  0.699883D+00
     18 -0.119512D+00 -0.220244D-02 -0.215118D+00  0.798258D+00  0.319138D+01
     19  0.903287D-01 -0.849337D-01 -0.221223D-01 -0.254899D-01  0.649716D-01
     20 -0.142168D+00  0.249170D-01  0.146400D-01  0.902071D-01  0.142857D+00
     21 -0.636879D-01  0.392749D-01 -0.523567D-01  0.290516D-01  0.554397D-01
     22  0.308157D-02 -0.620775D-01  0.294092D-01  0.510083D-02  0.272520D-01
     23 -0.740557D-01 -0.152273D-01 -0.379003D-01  0.333700D-01  0.220736D-01
     24  0.893286D-01 -0.611832D-01 -0.946435D-02 -0.463070D-01 -0.625043D-01
     25 -0.104572D+00 -0.214144D-01  0.623387D-01  0.573740D-01 -0.219007D-01
     26 -0.134556D-02  0.356363D+00 -0.136954D-02 -0.134645D+00 -0.103048D+00
     27  0.837805D-01  0.123443D-01  0.102928D+00  0.264390D-01 -0.529804D-02
     28 -0.491866D+01 -0.176429D-01 -0.397648D+00 -0.556599D-02  0.449063D-02
     29  0.130061D-01 -0.479517D+01  0.119412D+01 -0.403574D-02 -0.836223D-02
     30 -0.299852D+00  0.117416D+01 -0.138449D+01 -0.150706D-01 -0.304347D-02
     31  0.231756D-01  0.115156D-01  0.770659D-02 -0.156254D+01  0.202314D+01
     32  0.190093D-01  0.978132D-03  0.497512D-02  0.211697D+01 -0.357166D+01
     33  0.568339D-02  0.232853D-02 -0.499625D-02  0.115246D+01  0.709908D+00
                6             7             8             9            10 
      6  0.135993D+02
      7 -0.124247D+00  0.358412D+01
      8  0.101701D+00  0.728933D+01  0.758272D+01
      9 -0.101989D+00 -0.369802D+01  0.250289D+01  0.149283D+02
     10  0.173534D+00  0.472331D+00 -0.269827D+00  0.156639D+00  0.740190D+01
     11  0.898550D-01 -0.135883D+00 -0.192807D+00 -0.309663D-01  0.452147D+00
     12 -0.486861D+00  0.110749D+00 -0.365761D-01 -0.189347D+00  0.157167D+01
     13  0.217504D-01  0.714727D+00  0.741649D-01  0.961757D-01 -0.350212D+01
     14 -0.140435D-01  0.590296D-02 -0.171230D+00  0.592994D-01 -0.316831D+01
     15 -0.117139D+00 -0.239821D-01  0.749666D-01 -0.106036D+00  0.912979D+00
     16  0.741499D+00 -0.446761D+01 -0.695640D+01  0.351177D+01  0.569877D+00
     17  0.289780D+01 -0.701428D+01 -0.830301D+01 -0.251836D+01  0.280119D-01
     18 -0.810939D+01  0.379486D+01 -0.271288D+01 -0.143544D+02  0.248251D+00
     19  0.185646D-01  0.482827D-01  0.319446D-01  0.388915D-01  0.793449D-02
     20  0.493083D-01  0.125134D+00 -0.133922D-01  0.433142D-01  0.560892D-01
     21 -0.320577D-01  0.684671D-01  0.219204D-01 -0.194781D-01 -0.103627D+00
     22 -0.176957D-01 -0.891443D-02  0.117765D-01 -0.492177D-01  0.110424D+00
     23 -0.252007D-01  0.451000D-01 -0.321881D-01 -0.155082D-01  0.186525D+00
     24  0.879715D-02 -0.125462D+00  0.172011D-02  0.396214D-01 -0.754371D-01
     25  0.115264D-01  0.946377D-02 -0.182543D-01  0.599964D-02 -0.508061D+01
     26 -0.300871D-01 -0.675890D-01  0.274842D-01 -0.159902D-01  0.132908D+01
     27 -0.933383D-01  0.843282D-02 -0.497230D-02 -0.167104D-01 -0.194774D+00
     28  0.184245D-02  0.183589D-01 -0.594665D-02 -0.500706D-02 -0.107513D+00
     29  0.143189D-02 -0.178054D-01 -0.387467D-02  0.269403D-02 -0.269869D-01
     30 -0.442780D-02 -0.240672D-01  0.834579D-02 -0.691866D-02  0.271382D+00
     31  0.115236D+01 -0.731791D-01  0.667252D-01 -0.100238D-02  0.434958D-01
     32  0.747887D+00 -0.473398D-01  0.203083D+00  0.121142D-01  0.242565D-01
     33 -0.449681D+01 -0.641413D-02  0.492417D-01 -0.629668D-01  0.111143D-01
               11            12            13            14            15 
     11  0.138951D+02
     12  0.115421D+01  0.181256D+02
     13 -0.303380D+01  0.900162D+00  0.135149D+02
     14 -0.416090D+01 -0.103228D+01  0.590973D+00  0.155233D+02
     15 -0.103152D+01 -0.667010D+01  0.602747D+00  0.148121D+01  0.181894D+02
     16  0.440124D-01  0.342776D+00 -0.260557D+01  0.218308D+01 -0.133218D+01
     17 -0.239315D+00 -0.523500D-01  0.226639D+01 -0.520027D+01 -0.764684D+00
     18 -0.727945D-01 -0.144996D+00 -0.157116D+01 -0.856345D+00 -0.578929D+01
     19  0.964060D-01 -0.948407D-01 -0.439144D+01 -0.320343D-01 -0.647076D-01
     20  0.406094D-01  0.270810D+00 -0.113534D+00 -0.162780D+01  0.126860D+01
     21  0.232366D+00  0.118411D+00 -0.969886D-01  0.122962D+01 -0.382151D+01
     22  0.183591D+00 -0.687367D-01 -0.436683D+01  0.623067D-01 -0.170363D+00
     23 -0.719610D-01  0.132724D+00  0.460449D-01 -0.411801D+01 -0.973471D+00
     24  0.198832D+00  0.394001D+00 -0.101316D+00 -0.918556D+00 -0.143065D+01
     25  0.103611D+01 -0.136398D+00  0.140690D+00  0.140574D+00 -0.110310D-01
     26 -0.142513D+01 -0.316883D+00  0.851189D-01 -0.237084D+00  0.457199D-01
     27 -0.404407D+00 -0.561670D+01 -0.139049D-01  0.829328D-01  0.104806D+00
     28 -0.509921D-01  0.235629D+00 -0.343987D-01 -0.303668D-02  0.193498D-02
     29  0.424613D+00  0.129952D+00 -0.378817D-01 -0.646086D-01  0.123667D-01
     30  0.153488D+00  0.696782D+00 -0.369038D-01 -0.104771D-02 -0.472501D-01
     31  0.299626D-01  0.124157D-02  0.505276D-01  0.714764D-01  0.121475D-01
     32  0.138515D-01 -0.891733D-04  0.858105D-01  0.458256D-01  0.102170D-01
     33  0.902271D-02 -0.414113D-02  0.247505D-01  0.203489D-01 -0.256566D-01
               16            17            18            19            20 
     16  0.139993D+02
     17  0.315344D+01  0.133787D+02
     18 -0.307814D+01  0.566274D+00  0.284560D+02
     19  0.965927D-01 -0.585298D-01 -0.613732D-01  0.407954D+01
     20 -0.166917D-01 -0.397319D-01 -0.806964D-01 -0.163033D-01  0.132210D+01
     21 -0.228583D-01 -0.167881D-01  0.478976D-01  0.174629D+00 -0.144799D+01
     22  0.125311D-01  0.313724D-01  0.491712D-02  0.117051D+00  0.372621D-02
     23  0.200982D-01  0.249657D-01 -0.207573D-01  0.177874D-02  0.605713D-01
     24 -0.318754D-01 -0.535740D-01  0.763240D-01 -0.542044D-03 -0.119127D+00
     25  0.365700D-02  0.361400D-03  0.674644D-02 -0.154257D-01 -0.128148D-01
     26 -0.617792D-01 -0.438293D-02  0.915922D-02 -0.157432D-01  0.814800D-01
     27  0.142444D-01 -0.914453D-02 -0.291837D-01  0.142693D-02 -0.133646D-02
     28  0.324258D-01 -0.690131D-02 -0.204109D-01 -0.917970D-02  0.143436D-01
     29 -0.158502D-01 -0.587201D-02  0.129507D-01  0.103389D-01 -0.161607D-02
     30 -0.319785D-01  0.425325D-02  0.126611D-01  0.841592D-02 -0.201387D-02
     31  0.635599D-01 -0.892384D-01 -0.243874D-02  0.179985D-02  0.120120D-01
     32 -0.930278D-01 -0.850921D-01 -0.340891D-01  0.210448D-02  0.100107D-01
     33 -0.263469D-01 -0.540787D-01  0.494869D-01  0.165757D-02  0.448929D-02
               21            22            23            24            25 
     21  0.391300D+01
     22  0.438550D-02  0.404950D+01
     23 -0.132170D+00 -0.175112D+00  0.411659D+01
     24 -0.142426D+00  0.273575D+00  0.107003D+01  0.112173D+01
     25 -0.267379D-02 -0.309723D-02 -0.163286D-02  0.165831D-02  0.496827D+01
     26  0.173459D-01 -0.491780D-02  0.143423D-01 -0.302247D-01 -0.108839D+01
     27 -0.143655D-01  0.226013D-02 -0.785924D-02  0.868956D-02  0.210236D-01
     28  0.836904D-02  0.811049D-01 -0.832540D-01  0.238684D-01 -0.108033D-01
     29 -0.414284D-02 -0.768971D-01 -0.168346D-02 -0.190807D-01 -0.227045D-01
     30  0.231941D-02 -0.967384D-02  0.817249D-02 -0.642475D-01  0.304056D-01
     31  0.493283D-02  0.524663D-04  0.113688D-02 -0.749083D-02  0.350616D-01
     32  0.512942D-02 -0.102082D-02  0.524280D-03 -0.632806D-02  0.100590D-01
     33  0.562267D-03  0.114034D-02  0.194412D-02 -0.237852D-02  0.104045D-01
               26            27            28            29            30 
     26  0.129229D+01
     27  0.310563D+00  0.555884D+01
     28 -0.320255D-01  0.396191D-01  0.495693D+01
     29  0.128179D-01  0.241749D-01  0.181435D+00  0.444535D+01
     30  0.145804D-01  0.172278D-02  0.111040D+00 -0.135409D+01  0.795109D+00
     31 -0.776462D-02  0.114527D-01 -0.270172D-02 -0.261821D-02 -0.369779D-02
     32 -0.151235D-01  0.300212D-02 -0.470004D-03 -0.158672D-02 -0.280889D-02
     33 -0.281381D-02 -0.669084D-02  0.762346D-03 -0.381172D-03 -0.126112D-02
               31            32            33 
     31  0.142075D+01
     32 -0.211635D+01  0.339918D+01
     33 -0.117521D+01 -0.740010D+00  0.455486D+01
 Leave Link  701 at Mon Mar  4 17:59:04 2019, MaxMem=   104857600 cpu:               0.4 elap:               0.5
 (Enter /shared/centos7/gaussian/g16/l702.exe)
 L702 exits ... SP integral derivatives will be done elsewhere.
 Leave Link  702 at Mon Mar  4 17:59:04 2019, MaxMem=   104857600 cpu:               0.1 elap:               0.1
 (Enter /shared/centos7/gaussian/g16/l703.exe)
 Integral derivatives from FoFJK, PRISM(SPDF).
 Compute integral second derivatives, UseDBF=F ICtDFT=           0.
 ICntrl=    100147.
 Calling FoFJK, ICntrl=    100147 FMM=F ISym2X=0 I1Cent= 0 IOpClX= 0 NMat=1 NMatS=1 NMatT=0.
 FoFJK:  IHMeth= 1 ICntrl=  100147 DoSepK=F KAlg= 0 I1Cent=           0 FoldK=F
 IRaf=         0 NMat=       1 IRICut=       1 DoRegI=T DoRafI=F ISym2E= 0 IDoP0=0 IntGTp=1.
 FoFCou: FMM=F IPFlag=           0 FMFlag=      100000 FMFlg1=         800
         NFxFlg=           0 DoJE=F BraDBF=F KetDBF=F FulRan=T
         wScrn=  0.000000 ICntrl=    100147 IOpCl=  0 I1Cent=           0 NGrid=           0
         NMat0=    1 NMatS0=      1 NMatT0=    0 NMatD0=    1 NMtDS0=    0 NMtDT0=    0
 Symmetry not used in FoFCou.
 FoFCou:  KetSym=F NOpSet=  1 NOpAb=1 NOp=  1.
 FoFCou:  CnvScl= 1.00D+00 Thresh= 1.00D-08 IAcrcy=      12.
 PrismS was handed   104564656 working-precision words and  2593 shell-pairs
 FoFCou: LinMIO=F DoNuc=F BraDBF=F KetDBF=F HaveP=T PDBF=F HaveZ=T HaveW=F
         NIJTC =      15 NIJTAt=       0 NIJTCD=       0 NIJTT =      15
         IJTBeg=       1 IJTEnd=      15 KLTBeg=       1 KLTEnd=      15
         IPTBeg=       1 IPTEnd=      15 IPTBCv=       1 IPTECv=      15
         IZTBeg=       1 IZTEnd=      15 IZTBCv=       1 IZTECv=      15
         IWTBeg=      16 IWTEnd=      15 IWTBCv=      16 IWTECv=      15
         INTBeg=       1 INTEnd=       0 IFTBCv=       1 IFTECv=      15
 NCel replicated for PrismC:     1
 CoulSu-InSpLW:  IPartL=    0 NPrtUS=    1 NPrtUL=    1 DoSpLW=F IThBeg=    0 IThEnd=    0 NThAct=    1.
 CoulSu:  IncDef=  1024 NBBP=        3363121 NTPThr=   100 NPartT=    1 Incr=        1024 LDynOK=F GPUOK=T.
 CoulSu:  NPrtUS=   1 ThrOK=F IAlg=1 NPAlg=1 LenDen=           0 LWGrdD=           0 DoCopy=F ISkipM=0
          DoSpLW=F IThBeg=    0 IThEnd=    0.
 Enter PrismC:  IPart=  0 JobTyp=22 DoJE=F Cont=F.
 PrismC:  IPart=     0 DynPar=F LinDyn=F Incr=        1024 UseFst=F UseS4=T ISplat=2.
 PrismC was handed   104561891 working-precision words and  2593 shell-pairs
 IPart=  0 NShTot=     2366334 NShNF=     2366334 NShFF=           0 MinMC=       7
           NShCPU=     2366334 NBCPU=      101503 AvBCPU=        23.3
           NShGPU=           0 NBGPU=           0 AvBGPU=         0.0
 CoulSu:  NxtVal=           1025 LenVP=      104561892 MinMC=       7.
 ReadGW:  IGet=0 IStart=           1 Next=           1 LGW=           0.
 Remaining memory in FofDFT       99.92 Mw
 CkSvGd:  ISavGI=        -1 IRadAn=       5 IRASav=       5 ISavGd=        -1.
 CalDSu-InSpLW:  IPartL=    0 NPrtUS=    1 NPrtUL=    1 DoSpLW=F IThBeg=    0 IThEnd=    0 NThAct=    1.
 CalDSu:  NPrtUS=   1 ThrOK=F IAlg=1 NPAlg=1 DoDPD=F LenP=       39060 LenD1P=             0 GPUOK=F
          ISkipM=0 DoSpLW=F IThBeg=    0 IThEnd=    0.
 IPart=  0 IRanGd=          0 ScrnBf=T ScrnGd=T RCrit=4.00D+00 DoMicB=T.
 IPart=  0       227641 of       252088 points in     236 batches and     1334 microbatches, Max-NSigAt=      11 Max-NSgAt2=      11
 Polarizability after L703:
                1             2             3 
      1  0.000000D+00
      2  0.000000D+00  0.000000D+00
      3  0.000000D+00  0.000000D+00  0.000000D+00
 Dipole Derivatives after L703:
                 1             2             3             4             5 
      1  -0.717934D+00 -0.947742D-01  0.936460D+00 -0.958573D+00 -0.501518D+00
      2   0.135552D-02 -0.355555D+00 -0.139578D+00 -0.513451D+00 -0.809750D+00
      3   0.187094D-01 -0.166341D+00 -0.911228D+00 -0.154576D+00 -0.192596D+00
                 6             7             8             9            10 
      1  -0.583426D-01  0.102491D+00 -0.382838D+00  0.419092D+00  0.178622D+00
      2  -0.116922D+00 -0.892280D-01 -0.349772D+00 -0.117356D+00 -0.207204D+00
      3  -0.538148D+00 -0.925996D-01  0.973254D-01 -0.568041D+00  0.326154D-01
                11            12            13            14            15 
      1   0.981200D+00 -0.282424D+00  0.149082D-01 -0.412132D+00  0.272817D+00
      2  -0.839389D+00 -0.271210D-01 -0.119753D+00 -0.930701D+00  0.429348D-01
      3   0.137995D+00  0.950411D-01  0.191485D+00  0.860518D-01 -0.935133D+00
                16            17            18            19            20 
      1  -0.547850D+00  0.448408D+00 -0.909350D+00  0.132207D+00  0.125981D+00
      2   0.139476D+00  0.161946D+00  0.781289D-03 -0.216701D-01  0.878725D+00
      3  -0.139285D+00 -0.136285D+00  0.665991D+00  0.295003D-01  0.180442D+00
                21            22            23            24            25 
      1   0.101347D+00  0.136061D+00  0.307520D-01 -0.128309D+00  0.148707D+00
      2   0.371837D+00  0.874710D-02  0.286406D+00 -0.366268D+00  0.115736D+00
      3   0.284552D+00 -0.192497D-01 -0.114565D+00  0.610512D+00 -0.517575D-01
                26            27            28            29            30 
      1  -0.500803D+00 -0.230346D-02  0.300070D+00 -0.293356D+00 -0.654024D+00
      2   0.782853D+00 -0.405047D-02  0.656411D-01  0.340359D+00  0.120915D+00
      3  -0.182192D+00  0.229397D+00  0.439373D-01  0.190562D+00  0.658814D+00
                31            32            33 
      1   0.121129D+01  0.599081D+00  0.305036D+00
      2   0.620350D+00  0.834879D+00  0.234828D+00
      3   0.141220D+00  0.996027D-01  0.408243D+00
 Hessian after L703:
                1             2             3             4             5 
      1  0.475092D+00
      2  0.863530D-01  0.132531D+00
      3 -0.903461D-01  0.995706D-01  0.427900D+00
      4 -0.190337D-02 -0.357758D-03 -0.329323D-04  0.423223D+00
      5 -0.220585D-02  0.235803D-02 -0.611718D-04  0.901377D-01  0.385841D+00
      6 -0.147449D-02  0.351535D-03  0.177313D-03  0.837405D-01  0.680740D-01
      7 -0.547111D-02  0.231476D-02 -0.142689D-03  0.196899D-01  0.488045D-01
      8 -0.386922D-03  0.137466D-02 -0.840252D-05  0.551724D-01 -0.962689D-01
      9 -0.193455D-02  0.665459D-03 -0.746449D-04  0.418873D-02 -0.123586D-02
     10 -0.338992D+00 -0.362780D-01  0.165253D+00 -0.135890D-02 -0.602440D-03
     11 -0.573947D-01 -0.789792D-01  0.301843D-01 -0.219614D-02 -0.180834D-02
     12  0.813666D-01  0.115406D-01 -0.936858D-01 -0.124814D-02 -0.935413D-04
     13 -0.465757D-01  0.183937D-01 -0.117385D-01  0.271932D-03 -0.119672D-02
     14 -0.155214D-01  0.144324D-01  0.161368D-02 -0.269239D-01 -0.210005D-01
     15  0.239713D-01 -0.125112D-01 -0.432916D-02 -0.112381D-01 -0.801357D-02
     16 -0.124753D-02  0.204477D-02 -0.451069D-02 -0.131251D+00 -0.179419D-01
     17  0.785883D-02 -0.667101D-02  0.126219D-02 -0.289506D-01 -0.175094D+00
     18  0.238188D-02 -0.698084D-03  0.100493D-02 -0.751157D-02 -0.204758D-01
     19  0.181290D-02 -0.117583D-02  0.723810D-03 -0.526249D-02 -0.245103D-02
     20  0.758485D-03  0.135199D-02 -0.794964D-03 -0.230241D-02  0.657639D-03
     21 -0.313848D-03 -0.539328D-03  0.566308D-03  0.157781D-02  0.125918D-02
     22  0.627924D-02 -0.177522D-02 -0.274620D-02  0.150739D-03 -0.367859D-03
     23 -0.364913D-02  0.503097D-03 -0.214886D-02  0.324111D-04  0.592281D-03
     24 -0.210102D-02 -0.566078D-03  0.698691D-02 -0.418618D-04 -0.845586D-03
     25 -0.290561D-01 -0.386653D-01  0.430683D-02 -0.328892D-02 -0.200421D-02
     26 -0.242455D-02  0.640881D-02 -0.184558D-02 -0.340534D-02 -0.966998D-03
     27  0.145690D-01  0.155941D-01 -0.701003D-02 -0.119663D-03  0.268867D-03
     28 -0.599573D-01 -0.307371D-01 -0.608527D-01  0.328188D-03  0.100791D-03
     29 -0.138528D-01 -0.737106D-01 -0.127701D+00 -0.459182D-04 -0.989352D-03
     30 -0.259705D-01 -0.113590D+00 -0.331457D+00  0.109417D-03  0.158055D-03
     31  0.187120D-04 -0.117043D-03  0.864092D-04 -0.300599D+00 -0.112273D+00
     32  0.465051D-03  0.401152D-03 -0.703462D-04 -0.811604D-01 -0.933211D-01
     33 -0.148236D-03  0.182330D-03 -0.794677D-04 -0.694241D-01 -0.390346D-01
                6             7             8             9            10 
      6  0.678687D-01
      7  0.287728D-02  0.390621D+00
      8  0.197177D-02 -0.203649D+00  0.293270D+00
      9  0.246460D-01  0.662081D-01 -0.406832D-01  0.732640D-01
     10 -0.787921D-03 -0.583711D-02 -0.184818D-02  0.491352D-04  0.649509D+00
     11 -0.609056D-03 -0.752069D-02  0.168508D-02 -0.117400D-02  0.601701D-02
     12  0.105229D-02  0.300010D-02  0.497476D-03  0.369364D-02 -0.113862D+00
     13  0.436480D-02 -0.524270D-01  0.354840D-02  0.457481D-02 -0.155215D+00
     14  0.150213D-02  0.238798D-01  0.752227D-02  0.950831D-02  0.739550D-01
     15  0.334360D-03 -0.984301D-02  0.218789D-02  0.868657D-02 -0.596298D-01
     16 -0.113195D-01 -0.341450D+00  0.146261D+00 -0.735251D-01 -0.396235D-01
     17 -0.331871D-01  0.127464D+00 -0.215100D+00  0.300938D-01  0.208601D-01
     18 -0.524551D-01 -0.634042D-01  0.334149D-01 -0.108877D+00 -0.688949D-02
     19 -0.674504D-03 -0.271089D-03  0.861428D-03  0.126158D-02 -0.355466D-03
     20 -0.244404D-03  0.264905D-02  0.215914D-02  0.126864D-02  0.395733D-02
     21  0.100609D-02 -0.740623D-03  0.874168D-03 -0.234750D-03  0.336643D-02
     22 -0.567034D-03 -0.255809D-02 -0.201775D-02 -0.263417D-03 -0.420473D-02
     23 -0.675905D-03  0.180545D-02 -0.250929D-04 -0.864521D-03  0.539960D-02
     24  0.385595D-03 -0.894632D-03  0.336815D-03  0.238986D-02 -0.558688D-02
     25 -0.726791D-03  0.702892D-03 -0.226749D-02  0.535197D-04 -0.800543D-01
     26 -0.390008D-03 -0.338745D-03  0.251349D-03  0.152553D-04 -0.675167D-01
     27 -0.108077D-02  0.566027D-03 -0.324597D-03  0.868442D-04 -0.609509D-02
     28 -0.228255D-03  0.372753D-03 -0.168007D-03  0.175393D-04 -0.241099D-01
     29 -0.439637D-03 -0.117958D-03 -0.531089D-03 -0.228633D-04 -0.497987D-02
     30 -0.125485D-03  0.567954D-04  0.498417D-04 -0.220092D-03  0.239639D-01
     31 -0.752041D-01 -0.337231D-02  0.449408D-02 -0.630334D-03  0.241916D-03
     32 -0.363533D-01  0.470843D-02  0.566304D-02  0.242893D-02  0.103622D-02
     33 -0.418090D-01  0.231687D-02  0.168327D-02 -0.336078D-02  0.218813D-03
               11            12            13            14            15 
     11  0.653670D+00
     12 -0.914521D-01  0.204801D+00
     13  0.802442D-01 -0.161765D-01  0.525078D+00
     14 -0.186536D+00  0.372203D-01 -0.157130D-01  0.564577D+00
     15  0.720424D-01 -0.814146D-01  0.161549D-02  0.165569D-01  0.507870D+00
     16 -0.349521D-02  0.649072D-02 -0.178317D+00 -0.522356D-01  0.384041D-01
     17  0.980786D-02 -0.655292D-02 -0.699136D-01 -0.866567D-01  0.120661D-01
     18 -0.337950D-02 -0.208775D-02  0.874270D-02 -0.100247D-01 -0.609522D-01
     19  0.283643D-01  0.479753D-02 -0.522187D-01 -0.975309D-02 -0.257849D-02
     20 -0.213972D-01  0.275177D-02 -0.121432D-01 -0.214954D+00 -0.979598D-01
     21  0.153677D-01  0.884144D-02 -0.660358D-02 -0.101812D+00 -0.110204D+00
     22  0.112246D-01 -0.264882D-01 -0.508644D-01 -0.275645D-02  0.128259D-01
     23 -0.700560D-02  0.271518D-01  0.910805D-03 -0.566450D-01  0.323905D-01
     24  0.118420D-01 -0.115950D-01  0.151948D-01  0.310469D-01 -0.260362D+00
     25 -0.672365D-01  0.647386D-02  0.787076D-02  0.251633D-01  0.213878D-02
     26 -0.374815D+00  0.557262D-02 -0.588889D-02 -0.163712D-01 -0.919363D-02
     27 -0.375678D-01 -0.109824D-01 -0.256878D-02  0.144107D-01 -0.881993D-02
     28  0.121430D-01  0.556009D-01  0.210233D-02 -0.180472D-02  0.639009D-02
     29  0.546031D-02  0.129826D-01 -0.257770D-03 -0.581470D-03 -0.376377D-02
     30  0.436654D-02 -0.188888D-01 -0.350357D-03 -0.234196D-02  0.586845D-02
     31 -0.149943D-03  0.449865D-04  0.295470D-03  0.171012D-02 -0.205624D-02
     32 -0.820284D-04  0.381326D-03  0.201590D-02 -0.378717D-02 -0.380189D-02
     33  0.379514D-03  0.266319D-03  0.294516D-02  0.231969D-02  0.332284D-02
               16            17            18            19            20 
     16  0.694262D+00
     17 -0.355718D-01  0.500054D+00
     18  0.510774D-01 -0.552529D-02  0.231307D+00
     19 -0.726505D-03 -0.256302D-01 -0.140218D-01  0.577360D-01
     20 -0.298121D-02 -0.162125D-01 -0.553127D-02  0.687152D-02  0.245331D+00
     21  0.169067D-02  0.614410D-02  0.171986D-02  0.664040D-02  0.101893D+00
     22 -0.555827D-02 -0.897078D-03  0.253102D-01  0.260786D-02 -0.105701D-04
     23 -0.416840D-02 -0.411600D-02  0.125725D-01  0.164700D-02  0.421738D-02
     24  0.911906D-03 -0.517119D-03 -0.409958D-02  0.187743D-02  0.100145D-02
     25 -0.999168D-03  0.800248D-02  0.843253D-03 -0.307467D-02  0.272511D-02
     26  0.249140D-02 -0.119376D-02 -0.132493D-03  0.251756D-02 -0.279436D-03
     27  0.120170D-02 -0.295304D-03  0.171710D-02  0.133611D-02 -0.243233D-02
     28  0.870458D-04  0.524704D-04 -0.138283D-03 -0.365193D-03  0.294580D-03
     29  0.387501D-03  0.144769D-02  0.103353D-02 -0.470431D-04 -0.381956D-03
     30 -0.108478D-02 -0.101343D-03  0.505054D-03  0.146283D-03 -0.788448D-05
     31  0.482394D-02 -0.327471D-02  0.360989D-02  0.117422D-03  0.181267D-03
     32 -0.347901D-01 -0.626544D-02 -0.125376D-02 -0.120459D-02 -0.491760D-03
     33 -0.933639D-02 -0.338708D-02 -0.778235D-02  0.491624D-03  0.554728D-04
               21            22            23            24            25 
     21  0.115999D+00
     22 -0.282514D-02  0.542823D-01
     23 -0.259794D-01 -0.353503D-02  0.619806D-01
     24 -0.173110D-01 -0.632973D-02 -0.422519D-01  0.285974D+00
     25 -0.205958D-02 -0.766983D-03  0.748053D-03 -0.670209D-03  0.107765D+00
     26  0.223356D-02 -0.853105D-03  0.584118D-03 -0.470637D-03  0.755991D-01
     27  0.497475D-03 -0.101099D-02  0.175800D-02 -0.467121D-03 -0.899157D-02
     28 -0.786266D-03  0.540703D-03  0.781473D-03 -0.262166D-02  0.864234D-03
     29  0.947675D-04  0.695275D-03 -0.107007D-03  0.257353D-03 -0.105139D-02
     30 -0.913297D-03  0.268905D-02 -0.152627D-02 -0.183541D-02 -0.116592D-02
     31  0.537200D-04  0.916609D-04  0.277704D-04  0.261900D-03  0.372652D-04
     32  0.463991D-03  0.293168D-03  0.212549D-04  0.166770D-03 -0.101321D-02
     33  0.326959D-04 -0.594542D-03 -0.425964D-03 -0.661974D-04 -0.202184D-03
               26            27            28            29            30 
     26  0.384011D+00
     27  0.394962D-02  0.259705D-01
     28  0.260080D-03  0.952517D-03  0.802274D-01
     29  0.178334D-02  0.484196D-02  0.191772D-01  0.675863D-01
     30  0.248609D-03  0.278752D-03  0.163018D-02  0.112797D+00  0.346805D+00
     31 -0.440818D-03  0.160726D-03 -0.902857D-04  0.928376D-04 -0.240362D-04
     32  0.587774D-03 -0.203267D-03 -0.997838D-04  0.238014D-04 -0.525010D-04
     33  0.126839D-04 -0.190370D-03  0.359136D-04 -0.794233D-04 -0.178530D-04
               31            32            33 
     31  0.298435D+00
     32  0.109749D+00  0.972505D-01
     33  0.736971D-01  0.382941D-01  0.496842D-01
 Leave Link  703 at Mon Mar  4 18:11:11 2019, MaxMem=   104857600 cpu:             726.6 elap:             726.6
 (Enter /shared/centos7/gaussian/g16/l716.exe)
 FrcOut:
 IF    =       422 IFX   =       462 IFXYZ =       495
 IFFX  =       528 IFFFX =      1089 IFLen =        40
 IFFLen=       561 IFFFLn=         0 IEDerv=      1089
 LEDerv=      1637 IFroze=      3134 ICStrt=    127764
 Dipole        = 9.16435107D-02 9.24057734D-01 7.80662443D-01
 DipoleDeriv   =-7.17934359D-01 1.35551508D-03 1.87094365D-02
                -9.47742092D-02-3.55554966D-01-1.66340508D-01
                 9.36459860D-01-1.39578331D-01-9.11228323D-01
                -9.58572782D-01-5.13450719D-01-1.54575699D-01
                -5.01517993D-01-8.09749833D-01-1.92596291D-01
                -5.83425704D-02-1.16921954D-01-5.38147654D-01
                 1.02491402D-01-8.92280377D-02-9.25996258D-02
                -3.82838056D-01-3.49772211D-01 9.73253770D-02
                 4.19091554D-01-1.17355908D-01-5.68041237D-01
                 1.78621932D-01-2.07203726D-01 3.26154293D-02
                 9.81199846D-01-8.39389021D-01 1.37995479D-01
                -2.82423798D-01-2.71209706D-02 9.50410693D-02
                 1.49082200D-02-1.19752965D-01 1.91485204D-01
                -4.12131628D-01-9.30700724D-01 8.60518185D-02
                 2.72817439D-01 4.29348042D-02-9.35132534D-01
                -5.47850073D-01 1.39476156D-01-1.39284813D-01
                 4.48407964D-01 1.61945836D-01-1.36284574D-01
                -9.09349671D-01 7.81289169D-04 6.65991014D-01
                 1.32207261D-01-2.16700903D-02 2.95003236D-02
                 1.25980565D-01 8.78724888D-01 1.80441711D-01
                 1.01347367D-01 3.71836516D-01 2.84552400D-01
                 1.36061163D-01 8.74710000D-03-1.92497275D-02
                 3.07519938D-02 2.86405776D-01-1.14565196D-01
                -1.28309157D-01-3.66267718D-01 6.10511616D-01
                 1.48707441D-01 1.15735576D-01-5.17574557D-02
                -5.00803325D-01 7.82853091D-01-1.82192273D-01
                -2.30346299D-03-4.05046773D-03 2.29397148D-01
                 3.00070165D-01 6.56411362D-02 4.39373379D-02
                -2.93356460D-01 3.40358602D-01 1.90561750D-01
                -6.54023989D-01 1.20914951D-01 6.58813922D-01
                 1.21128963D+00 6.20350055D-01 1.41219589D-01
                 5.99081304D-01 8.34878561D-01 9.96027069D-02
                 3.05036428D-01 2.34827789D-01 4.08242580D-01
 Polarizability= 0.00000000D+00 0.00000000D+00 0.00000000D+00
                 0.00000000D+00 0.00000000D+00 0.00000000D+00
 Quadrupole    =-4.07476822D+00 2.41940909D+00 1.65535913D+00
                 3.75574256D+00-2.83411506D+00 1.06655906D+00
 Forces in standard orientation:
 -------------------------------------------------------------------
 Center     Atomic                   Forces (Hartrees/Bohr)
 Number     Number              X              Y              Z
 -------------------------------------------------------------------
      1        8           0.028934853   -0.009384464   -0.049537426
      2        8           0.006747990   -0.009362060    0.019653477
      3        8           0.053124660   -0.046099504    0.055403340
      4        7          -0.024105252   -0.012945187    0.035219180
      5        6           0.015320212   -0.008325243    0.023844722
      6        6          -0.123321506    0.036146853   -0.124462597
      7        1           0.004297144   -0.013509834   -0.005332037
      8        1          -0.004539823   -0.006528097    0.008183790
      9        1           0.002031320    0.016414566   -0.005794142
     10        1           0.009753253    0.013928170    0.024396771
     11        1           0.031757149    0.039664800    0.018424922
 -------------------------------------------------------------------
 Cartesian Forces:  Max     0.124462597 RMS     0.039410553
 ***** Axes restored to original set *****
 Rotating derivatives, DoTrsp=F IDiff=-2 LEDeriv=   1636 LFDPrp=       0 LDFDPr=       0.
 -------------------------------------------------------------------
 Center     Atomic                   Forces (Hartrees/Bohr)
 Number     Number              X              Y              Z
 -------------------------------------------------------------------
      1        8           0.012513640   -0.017362244    0.054048236
      2        8           0.010093963   -0.009414235   -0.018136339
      3        8           0.057438780   -0.052360357   -0.044453384
      4        7          -0.015578290   -0.006210705   -0.041325243
      5        6           0.019524343   -0.009809125   -0.019878894
      6        6          -0.144255020    0.052305941    0.091979914
      7        1           0.000345455   -0.014346485    0.004844656
      8        1          -0.003211355   -0.005095938   -0.009691186
      9        1           0.003154862    0.015392588    0.007762177
     10        1           0.018174169    0.013094692   -0.019558908
     11        1           0.041799453    0.033805869   -0.005591029
 -------------------------------------------------------------------
 Cartesian Forces:  Max     0.144255020 RMS     0.039410553
 Force constants in Cartesian coordinates: 
                1             2             3             4             5 
      1  0.452623D+00
      2  0.469650D-01  0.125809D+00
      3  0.810068D-01 -0.123044D+00  0.457091D+00
      4 -0.241382D-02  0.644323D-03 -0.645701D-03  0.474387D+00
      5 -0.138492D-02  0.270661D-02 -0.191112D-03  0.880252D-01  0.358012D+00
      6  0.589905D-03 -0.330091D-03  0.339184D-03  0.240145D-01 -0.120467D-01
      7 -0.507256D-02  0.364801D-02 -0.105322D-02  0.352801D-01  0.239574D-01
      8  0.695716D-03  0.816634D-03  0.224344D-03  0.310315D-01 -0.111178D+00
      9  0.430360D-03  0.788462D-05  0.848301D-04  0.786135D-03  0.125002D-02
     10 -0.264031D+00  0.224585D-01 -0.214643D+00 -0.219929D-02 -0.534922D-03
     11 -0.165220D-02 -0.712953D-01  0.278995D-02 -0.224567D-02 -0.127668D-02
     12 -0.129991D+00  0.118994D-01 -0.176330D+00  0.212836D-03 -0.431130D-03
     13 -0.386756D-01  0.232496D-01  0.297154D-02 -0.691469D-02 -0.508177D-02
     14 -0.212971D-02  0.109278D-01 -0.372144D-02 -0.289905D-01 -0.151795D-01
     15 -0.311477D-01  0.248565D-01 -0.872459D-02  0.885704D-02  0.365632D-02
     16 -0.163577D-03  0.252036D-03  0.391112D-02 -0.141617D+00 -0.277887D-01
     17  0.704477D-02 -0.825210D-02 -0.724648D-03 -0.412233D-01 -0.167000D+00
     18 -0.216059D-02  0.740449D-03  0.150207D-02 -0.162065D-01  0.524810D-02
     19  0.168582D-02 -0.130852D-02 -0.332707D-03 -0.512683D-02 -0.912951D-03
     20  0.380798D-03  0.137053D-02  0.110499D-02 -0.923246D-03  0.137584D-02
     21  0.738919D-03  0.166129D-03  0.674848D-03 -0.354449D-02 -0.120533D-02
     22  0.393044D-02 -0.268276D-02  0.208296D-02 -0.983157D-04 -0.521645D-03
     23 -0.482202D-02  0.165305D-02  0.000000D+00 -0.399946D-04  0.564913D-03
     24  0.104862D-02 -0.886236D-03  0.818576D-02  0.530219D-04  0.717623D-03
[...]
    R4        1.82573   0.00000   0.00000   0.00000   0.00000   1.82573
    R5        2.25746  -0.00000   0.00000  -0.00000  -0.00000   2.25746
    R6        2.74007   0.00000   0.00000   0.00000   0.00000   2.74007
    R7        1.91774   0.00000   0.00000   0.00000   0.00000   1.91774
    R8        2.85187   0.00000   0.00000   0.00000   0.00000   2.85187
    R9        2.05323   0.00000   0.00000   0.00000   0.00000   2.05323
   R10        2.08346   0.00000   0.00000   0.00000   0.00000   2.08346
    A1        1.88933  -0.00000   0.00000  -0.00000  -0.00000   1.88933
    A2        1.88073   0.00000   0.00000   0.00000   0.00000   1.88073
    A3        1.91380   0.00000   0.00000   0.00000   0.00000   1.91380
    A4        1.88602   0.00000   0.00000   0.00000   0.00000   1.88602
    A5        1.92983  -0.00000   0.00000  -0.00000  -0.00000   1.92983
    A6        1.94605   0.00000   0.00000  -0.00000  -0.00000   1.94605
    A7        1.91027  -0.00000   0.00000  -0.00000  -0.00000   1.91027
    A8        1.97072  -0.00000   0.00000  -0.00000  -0.00000   1.97072
    A9        1.88881  -0.00000   0.00000   0.00000   0.00000   1.88881
   A10        1.86100  -0.00000   0.00000   0.00000   0.00000   1.86100
   A11        1.88404   0.00000   0.00000   0.00000   0.00000   1.88404
   A12        2.15037   0.00000   0.00000   0.00000   0.00000   2.15037
   A13        1.95109  -0.00000   0.00000  -0.00000  -0.00000   1.95108
   A14        2.18094   0.00000   0.00000   0.00000   0.00000   2.18094
    D1        1.00889   0.00000   0.00000   0.00000   0.00000   1.00890
    D2       -1.09581   0.00000   0.00000   0.00000   0.00000  -1.09580
    D3        0.02990  -0.00000   0.00000  -0.00000  -0.00000   0.02990
    D4        3.13074  -0.00000   0.00000   0.00000   0.00000   3.13074
    D5       -3.05404  -0.00000   0.00000   0.00000   0.00000  -3.05404
    D6        1.13992  -0.00000   0.00000   0.00000   0.00000   1.13992
    D7       -0.95918   0.00000   0.00000  -0.00000  -0.00000  -0.95918
    D8       -0.97614   0.00000   0.00000   0.00000   0.00000  -0.97614
    D9       -3.06536   0.00000   0.00000   0.00000   0.00000  -3.06536
   D10        1.11872   0.00000   0.00000   0.00000   0.00000   1.11872
   D11        0.64140   0.00000   0.00000   0.00001   0.00001   0.64141
   D12       -2.54180   0.00000   0.00000   0.00001   0.00001  -2.54179
   D13        2.74327   0.00000   0.00000   0.00001   0.00001   2.74328
   D14       -0.43993   0.00000   0.00000   0.00001   0.00001  -0.43992
   D15       -1.51700   0.00000   0.00000   0.00001   0.00001  -1.51699
   D16        1.58299   0.00000   0.00000   0.00001   0.00001   1.58300
         Item               Value     Threshold  Converged?
 Maximum Force            0.000000     0.000002     YES
 RMS     Force            0.000000     0.000001     YES
 Maximum Displacement     0.000018     0.000006     NO 
 RMS     Displacement     0.000005     0.000004     NO 
 Predicted change in Energy=-8.996778D-13
                           ----------------------------
                           ! Non-Optimized Parameters !
                           ! (Angstroms and Degrees)  !
 --------------------------                            --------------------------
 ! Name  Definition              Value          Derivative Info.                !
 --------------------------------------------------------------------------------
 ! R1    R(1,4)                  1.4051         -DE/DX =    0.0                 !
 ! R2    R(1,10)                 0.967          -DE/DX =    0.0                 !
 ! R3    R(2,6)                  1.3454         -DE/DX =    0.0                 !
 ! R4    R(2,11)                 0.9661         -DE/DX =    0.0                 !
 ! R5    R(3,6)                  1.1946         -DE/DX =    0.0                 !
 ! R6    R(4,5)                  1.45           -DE/DX =    0.0                 !
 ! R7    R(4,9)                  1.0148         -DE/DX =    0.0                 !
 ! R8    R(5,6)                  1.5091         -DE/DX =    0.0                 !
 ! R9    R(5,7)                  1.0865         -DE/DX =    0.0                 !
 ! R10   R(5,8)                  1.1025         -DE/DX =    0.0                 !
 ! A1    A(4,1,10)             108.2506         -DE/DX =    0.0                 !
 ! A2    A(6,2,11)             107.7578         -DE/DX =    0.0                 !
 ! A3    A(1,4,5)              109.6527         -DE/DX =    0.0                 !
 ! A4    A(1,4,9)              108.0607         -DE/DX =    0.0                 !
 ! A5    A(5,4,9)              110.5713         -DE/DX =    0.0                 !
 ! A6    A(4,5,6)              111.5002         -DE/DX =    0.0                 !
 ! A7    A(4,5,7)              109.4506         -DE/DX =    0.0                 !
 ! A8    A(4,5,8)              112.9139         -DE/DX =    0.0                 !
 ! A9    A(6,5,7)              108.2206         -DE/DX =    0.0                 !
 ! A10   A(6,5,8)              106.6275         -DE/DX =    0.0                 !
 ! A11   A(7,5,8)              107.9476         -DE/DX =    0.0                 !
 ! A12   A(2,6,3)              123.2071         -DE/DX =    0.0                 !
 ! A13   A(2,6,5)              111.7889         -DE/DX =    0.0                 !
 ! A14   A(3,6,5)              124.9589         -DE/DX =    0.0                 !
 ! D1    D(10,1,4,5)            57.8055         -DE/DX =    0.0                 !
 ! D2    D(10,1,4,9)           -62.7849         -DE/DX =    0.0                 !
 ! D3    D(11,2,6,3)             1.713          -DE/DX =    0.0                 !
 ! D4    D(11,2,6,5)           179.378          -DE/DX =    0.0                 !
 ! D5    D(1,4,5,6)           -174.9837         -DE/DX =    0.0                 !
 ! D6    D(1,4,5,7)             65.3127         -DE/DX =    0.0                 !
 ! D7    D(1,4,5,8)            -54.9569         -DE/DX =    0.0                 !
 ! D8    D(9,4,5,6)            -55.9286         -DE/DX =    0.0                 !
 ! D9    D(9,4,5,7)           -175.6321         -DE/DX =    0.0                 !
 ! D10   D(9,4,5,8)             64.0982         -DE/DX =    0.0                 !
 ! D11   D(4,5,6,2)             36.75           -DE/DX =    0.0                 !
 ! D12   D(4,5,6,3)           -145.6339         -DE/DX =    0.0                 !
 ! D13   D(7,5,6,2)            157.1783         -DE/DX =    0.0                 !
 ! D14   D(7,5,6,3)            -25.2055         -DE/DX =    0.0                 !
 ! D15   D(8,5,6,2)            -86.9169         -DE/DX =    0.0                 !
 ! D16   D(8,5,6,3)             90.6992         -DE/DX =    0.0                 !
 --------------------------------------------------------------------------------
 GradGradGradGradGradGradGradGradGradGradGradGradGradGradGradGradGradGrad

 Leave Link  103 at Mon Mar  4 19:56:10 2019, MaxMem=   104857600 cpu:               0.0 elap:               0.0
 (Enter /shared/centos7/gaussian/g16/l9999.exe)

 ----------------------------------------------------------------------

 Electric dipole moment (input orientation):
 (Debye = 10**-18 statcoulomb cm , SI units = C m)
                  (au)            (Debye)         (10**-30 SI)
   Tot        0.123634D+01      0.314246D+01      0.104821D+02
   x         -0.445608D+00     -0.113262D+01     -0.377802D+01
   y         -0.647321D+00     -0.164533D+01     -0.548822D+01
   z          0.954432D+00      0.242592D+01      0.809201D+01

 Dipole polarizability, Alpha (input orientation).
 (esu units = cm**3 , SI units = C**2 m**2 J**-1)
 Alpha(0;0):
               (au)            (10**-24 esu)      (10**-40 SI)
   iso        0.456467D+02      0.676414D+01      0.752612D+01
   aniso      0.177157D+02      0.262520D+01      0.292093D+01
   xx         0.527461D+02      0.781617D+01      0.869666D+01
   yx        -0.285426D+01     -0.422958D+00     -0.470604D+00
   yy         0.454068D+02      0.672860D+01      0.748657D+01
   zx         0.690715D+01      0.102353D+01      0.113884D+01
   zy        -0.602307D-01     -0.892527D-02     -0.993070D-02
   zz         0.387872D+02      0.574766D+01      0.639514D+01

 ----------------------------------------------------------------------

 Dipole orientation:
     8       -174.15195451       -141.54699825        -57.01395216
     8       -181.40886006       -142.52058736        -55.12404230
     8       -182.67756039       -139.21166721        -57.42354455
     7       -176.73434701       -142.16457669        -56.99174996
     6       -178.22810016       -139.87428705        -56.81500470
     6       -181.00757774       -140.45678115        -56.55349959
     1       -177.96427261       -138.75306402        -58.51470865
     1       -177.71022251       -138.69225433        -55.17934007
     1       -177.06106677       -143.30039186        -55.48148166
     1       -173.77521446       -140.60718635        -55.49282587
     1       -183.21275355       -142.78001158        -55.01461505

 Electric dipole moment (dipole orientation):
 (Debye = 10**-18 statcoulomb cm , SI units = C m)
                  (au)            (Debye)         (10**-30 SI)
   Tot        0.123634D+01      0.314246D+01      0.104821D+02
   x          0.000000D+00      0.000000D+00      0.000000D+00
   y          0.000000D+00      0.000000D+00      0.000000D+00
   z          0.123634D+01      0.314246D+01      0.104821D+02

 Dipole polarizability, Alpha (dipole orientation).
 (esu units = cm**3 , SI units = C**2 m**2 J**-1)
 Alpha(0;0):
               (au)            (10**-24 esu)      (10**-40 SI)
   iso        0.456467D+02      0.676414D+01      0.752612D+01
   aniso      0.177157D+02      0.262520D+01      0.292093D+01
   xx         0.560315D+02      0.830302D+01      0.923835D+01
   yx        -0.117050D+01     -0.173451D+00     -0.192990D+00
   yy         0.433657D+02      0.642613D+01      0.715003D+01
   zx         0.104243D+01      0.154472D+00      0.171873D+00
   zy        -0.357759D+01     -0.530144D+00     -0.589865D+00
   zz         0.375429D+02      0.556328D+01      0.618999D+01

 ----------------------------------------------------------------------

 Test job not archived.
 1\1\GINC-C0152\Freq\RM062X\6-311+G(2df,2p)\C2H5N1O3\UNDERKOFFLER.C\04-
 Mar-2019\0\\#P Geom=AllCheck Guess=TCheck SCRF=Check Test GenChk RM062
 X/6-311+G(2df,2p) Freq\\Gaussian input prepared by ASE\\0,1\O,-66.5498
 515405,-37.7043461786,-95.7248230621\O,-70.4141040794,-38.254503685,-9
 6.6066153164\O,-70.7841481186,-36.0657752062,-96.8711864198\N,-67.7856
 420541,-37.8412139927,-96.3794002367\C,-68.6809342643,-36.7815313652,-
 95.9575369552\C,-70.0609910591,-36.9579014318,-96.542224212\H,-68.2905
 626672,-35.8239339858,-96.2909205177\H,-68.8055592364,-36.7351684701,-
 94.8630662306\H,-68.1699016825,-38.7493080133,-96.1394425125\H,-66.708
 1915662,-37.7266425934,-94.7711733149\H,-71.3049527489,-38.2992054382,
 -96.9778449298\\Version=EM64L-G16RevA.03\State=1-A\HF=-359.5844148\RMS
 D=3.562e-09\RMSF=5.805e-07\ZeroPoint=0.0851317\Thermal=0.0915964\Dipol
 e=-0.4456077,-0.6473211,0.9544323\DipoleDeriv=-0.5161057,0.0895061,-0.
 0657396,0.1069054,-0.4482349,0.018807,-0.334514,0.0250624,-0.1544904,-
 0.5786641,-0.3811716,-0.0579689,-0.2093396,-1.255746,-0.032944,-0.0735
 019,-0.0816704,-0.3827518,-0.8921097,0.4144343,-0.2278662,0.1924942,-0
 .9888935,0.1137528,-0.2201157,0.2012173,-0.4570232,0.1119664,0.0497365
 ,0.1320237,0.0090667,-0.184033,-0.1382572,0.3136909,-0.1049495,-0.2888
 87,0.0237669,-0.1142394,-0.2179396,-0.1630808,0.2483072,0.0623573,-0.1
 69089,0.0217399,0.2839604,1.252139,-0.0849198,0.4062024,-0.0229356,1.8
 519158,-0.108811,0.422116,-0.1632317,0.4659888,0.0362614,-0.0262966,-0
 .003124,0.0180768,-0.0082114,0.0109617,0.0330842,0.0316659,0.0615285,-
 0.039046,0.0384517,-0.0142162,0.0704933,0.0238484,0.0312227,0.0508266,
 -0.0514103,-0.1497714,0.1025467,-0.0277274,-0.021382,-0.0309206,0.1288
 351,0.0339382,0.0003779,0.1038136,0.2146695,0.2070037,-0.0218107,0.093
 5326,-0.0534981,0.3205453,-0.0262543,0.0038891,-0.0097099,0.0755492,0.
 2922413,0.0640369,-0.0235223,0.0827382,0.3116671,0.0352268,-0.0267642,
 0.0274727,0.3312272\Polar=52.7461288,-2.8542593,45.4068178,6.9071541,-
 0.0602307,38.7871616\Quadrupole=-2.695051,-0.2568111,2.9518621,4.39677
 77,3.0307586,0.5933323\PG=C01 [X(C2H5N1O3)]\NImag=0\\0.37005972,0.0338
 7749,0.06018564,-0.00835560,0.00116493,0.58517219,-0.00168438,0.000426
 48,-0.00045184,0.56777948,-0.00145474,0.00272313,0.00051453,0.06495092
 ,0.42861779,-0.00094831,0.00058907,0.00061522,0.21569144,0.00512037,0.
 12884955,-0.00540081,0.00303785,-0.00079913,0.03661075,0.02147861,0.00
 098265,0.38309665,0.00157575,0.00044239,0.00056943,0.02899897,-0.11032
 018,0.01938519,-0.36577977,0.57194014,-0.00328901,0.00172346,-0.000535
 84,0.00122868,0.01606301,0.02907067,0.15640513,-0.17258923,0.10186228,
 -0.21956560,-0.02395004,-0.12958336,-0.00235347,0.00041644,-0.00031317
 ,-0.00283712,-0.00092250,-0.00284953,0.48768263,-0.02478003,-0.0692756
 2,-0.01613055,-0.00073525,-0.00160939,-0.00038727,-0.00424585,0.002432
 38,-0.00452142,0.05555855,0.64495549,-0.02509078,-0.00710152,-0.103070
 04,-0.00088333,-0.00011358,-0.00006117,-0.00395900,-0.00022104,-0.0023
 2464,0.03682655,-0.02151493,0.25923663,-0.04928893,0.02952628,0.007516
 10,-0.01314021,-0.00873017,-0.01030488,-0.02318298,0.01128303,-0.01949
 424,-0.12780315,0.05323567,0.00727543,0.51877778,-0.00449278,0.0072864
 2,-0.00525099,-0.03907669,-0.01489461,-0.01688288,0.03387875,0.0009021
 7,0.01826372,0.05431155,-0.18848594,-0.02291913,0.04474233,0.61263673,
 -0.02709047,0.01294652,-0.00713332,-0.00572262,-0.00311902,0.00919910,
 -0.01901154,0.00817586,0.01542981,0.05282341,-0.06612172,-0.07804880,-
 0.00041882,-0.03391311,0.51556457,0.00332381,-0.00118260,0.00220875,-0
 .14313550,-0.04562157,-0.02963923,-0.38615036,0.31605561,-0.13636999,-
 0.02556678,0.00389284,-0.00885669,-0.18185865,-0.01509357,-0.03632518,
 0.75220126,0.00704829,-0.00702720,-0.00144683,-0.06525662,-0.25858109,
 -0.01611202,0.30189626,-0.47108356,0.13894455,0.02348873,0.00678334,0.
 01278173,-0.02871521,-0.08169084,-0.01377837,-0.20231852,0.82303270,0.
 00545988,-0.00348660,0.00137550,-0.02942710,-0.00672726,-0.07713100,-0
 .13460621,0.14374848,-0.13964142,0.00739713,0.00940357,0.00270433,-0.0
 3937864,-0.00806566,-0.10531855,0.21876491,-0.10737389,0.32696444,0.00
 245533,-0.00118672,0.00015284,-0.00573571,-0.00074709,-0.00320357,0.00
 253996,0.00177619,-0.00096661,0.00763677,0.02602579,-0.00478238,-0.088
 39579,-0.09240230,0.03267059,-0.00972091,-0.02818648,0.01283558,0.0947
 9140,-0.00044007,0.00286299,0.00047685,-0.00028416,0.00133189,0.000189
 84,0.00213962,0.00115872,-0.00009325,-0.00636636,-0.02886234,0.0017986
 0,-0.09013273,-0.25626269,0.07707663,-0.00217801,-0.00474680,0.0003514
 9,0.09342140,0.28475502,0.00015661,0.00041186,0.00016645,-0.00321234,-
 0.00078379,-0.00097762,0.00178375,-0.00045330,-0.00021951,-0.00622572,
 -0.01345519,0.00460222,0.03617657,0.08304828,-0.07702582,-0.00704702,-
 0.01342167,0.00320839,-0.03639125,-0.08001105,0.08132597,0.00514809,-0
 .00119830,0.00360202,-0.00170764,-0.00159218,0.00181530,-0.00487254,0.
 00098489,0.00317659,-0.00914133,0.01006354,0.02466032,-0.05182435,-0.0
 0373116,0.01451064,0.00791008,0.00150610,-0.03270234,0.00007135,-0.000
 11268,0.01302086,0.05435074,-0.00502680,0.00044880,-0.00004624,-0.0004
 3408,0.00009128,0.00067678,0.00095887,0.00022527,0.00002296,0.01169397
 ,-0.00704828,-0.03284480,-0.00007275,-0.04872724,0.00135919,-0.0011402
 6,-0.00138729,-0.00569084,-0.00121628,0.00194447,0.02732919,-0.0048752
 4,0.05239196,0.00058477,0.00153997,0.00685899,-0.00052711,-0.00001447,
 0.00081865,-0.00249080,-0.00056398,0.00160345,0.00570821,-0.01181358,-
 0.01226377,0.01813231,0.00216019,-0.28044160,0.00144796,0.00209473,-0.
 01593591,0.00008740,0.00019675,-0.01092749,-0.02586301,0.00770165,0.31
 035230,-0.03231141,-0.03088873,0.00063041,-0.00332807,-0.00137877,-0.0
 0062232,0.00005711,-0.00194049,0.00018213,-0.09924142,-0.12068037,0.02
 482340,0.01004776,0.02587725,-0.00488917,0.00231412,0.00434248,0.00011
 743,-0.00332879,0.00381048,0.00153011,0.00035163,-0.00007147,0.0003073
 5,0.12455804,0.00077993,0.00757657,0.00113746,-0.00202200,0.00025236,-
 0.00082660,-0.00000992,0.00084632,-0.00009779,-0.11470534,-0.35608319,
 0.07673962,-0.00937723,-0.02516611,0.01167421,0.00057178,-0.00274073,0
 .00044965,0.00373819,-0.00158464,-0.00225692,-0.00115144,0.00160596,-0
 .00019818,0.12202930,0.37449209,-0.02104193,-0.02047943,-0.00361130,-0
 .00016881,-0.00156018,-0.00106535,-0.00037090,-0.00091283,-0.00019876,
 0.04441345,0.12891504,-0.05088865,0.00179701,-0.01804578,-0.00367077,0
 .00099234,0.00353919,0.00180822,0.00015816,-0.00020252,0.00059544,-0.0
 0086653,-0.00091595,0.00133989,-0.02317020,-0.08603966,0.05444855,-0.0
 7290279,-0.00852198,0.12482412,0.00027500,0.00050551,0.00037290,0.0007
 4935,-0.00018259,0.00018002,-0.00952307,0.00142134,-0.04997851,0.00397
 050,-0.00248509,-0.00612412,-0.00138956,-0.00068558,-0.00014267,-0.000
 27214,0.00022034,0.00060656,0.00013327,0.00033089,0.00302612,0.0011054
 0,0.00033395,-0.00172560,0.07784175,-0.00761567,-0.00557504,0.01882208
 ,-0.00054290,-0.00082948,-0.00007162,-0.00056221,-0.00015696,-0.000146
 22,-0.00038698,-0.00232771,-0.00668016,-0.00112836,0.00103429,0.004743
 22,0.00162257,0.00081585,-0.00002349,0.00007272,-0.00048852,0.00032046
 ,0.00004038,0.00056948,-0.00103098,-0.00056008,-0.00000708,-0.00419051
 ,0.00907612,0.00697514,0.07956470,0.01254123,-0.47974336,0.00030940,0.
 00021991,0.00012044,0.00040697,-0.00004231,0.00020763,-0.00839623,-0.0
 0404594,-0.01972311,-0.00009722,0.00235990,0.00604790,0.00031950,-0.00
 064841,0.00000404,-0.00000085,0.00007840,-0.00067293,-0.00231489,0.002
 07705,-0.00154762,0.00120445,-0.00070596,0.00139858,-0.07098669,-0.011
 81320,0.49392771,0.00016699,0.00006027,0.00025570,-0.43358023,-0.02782
 696,-0.17383080,-0.00061000,0.00815091,0.00179683,0.00071254,0.0002437
 7,-0.00003501,0.00269802,-0.00152827,-0.00042272,-0.01792750,-0.013119
 46,-0.00831798,-0.00004147,-0.00007782,-0.00039813,-0.00041929,-0.0001
 4684,-0.00041320,-0.00022435,-0.00018723,-0.00001698,0.00001229,-0.000
 01560,-0.00000912,0.44921301,0.00052863,0.00035191,0.00018934,0.013975
 34,-0.04678168,0.00831915,0.00720779,0.00361331,0.00243020,0.00086200,
 -0.00047873,0.00007520,-0.00063087,-0.00663218,0.00095658,-0.05460828,
 -0.00337437,-0.02258544,-0.00129542,-0.00010811,-0.00072788,0.00006610
 ,-0.00011441,-0.00007209,-0.00053960,0.00080846,-0.00010736,-0.0000129
 1,-0.00000999,-0.00002067,0.03444722,0.05272581,0.00005014,0.00015050,
 -0.00009450,-0.17683638,-0.00959952,-0.08943849,0.00165909,0.00290374,
 -0.00525368,0.00019927,-0.00032802,-0.00016298,-0.00120363,-0.00075454
 ,0.00539748,-0.00549535,-0.00457902,0.00196197,-0.00055990,0.00013826,
 -0.00007510,0.00096104,0.00033101,0.00014313,-0.00011357,0.00012417,-0
 .00015584,-0.00005213,0.00007043,-0.00001926,0.18139142,0.01154299,0.0
 8769727\\-0.00000023,-0.00000041,0.00000141,0.00000010,0.00000056,-0.0
 0000065,0.00000054,0.00000041,-0.00000133,-0.00000016,-0.00000033,0.00
 000059,0.,0.00000008,-0.00000002,0.00000050,-0.00000049,-0.00000064,0.
 00000041,-0.00000018,0.,-0.00000054,0.00000025,-0.00000015,-0.00000021
 ,-0.00000009,0.00000066,-0.00000074,-0.00000014,0.00000123,0.00000032,
 0.00000034,-0.00000110\\\@


 I DO NOT KNOW WHAT I MAY APPEAR TO THE WORLD; BUT TO MYSELF
 I SEEM TO HAVE BEEN ONLY LIKE A BOY PLAYING ON THE SEASHORE,
 AND DIVERTING MYSELF IN NOW AND THEN FINDING A SMOOTHER PEBBLE
 OR A PRETTIER SHELL THAN ORDINARY, WHILST THE GREAT OCEAN OF
 TRUTH LAY ALL UNDISCOVERED BEFORE ME.
                                          -- NEWTON (1642-1726)
 Job cpu time:       0 days  0 hours 36 minutes 49.5 seconds.
 Elapsed time:       0 days  0 hours 36 minutes 49.9 seconds.
 File lengths (MBytes):  RWF=   1328 Int=      0 D2E=      0 Chk=     32 Scr=     32
 Normal termination of Gaussian 16 at Mon Mar  4 19:56:10 2019.
