 Entering Gaussian System, Link 0=g16
 Input=NPWGWQRXHVJJRD-UHFFFAOYSA-N_72by10.0_tor34_a4.com
 Output=NPWGWQRXHVJJRD-UHFFFAOYSA-N_72by10.0_tor34_a4.log
 Initial command:
 /shared/centos7/gaussian/g16/l1.exe "/scratch/underkoffler.c/gaussian_scratch/Gau-30868.inp" -scrdir="/scratch/underkoffler.c/gaussian_scratch/"
 Entering Link 1 = /shared/centos7/gaussian/g16/l1.exe PID=     30869.
  
 Copyright (c) 1988,1990,1992,1993,1995,1998,2003,2009,2016,
            Gaussian, Inc.  All Rights Reserved.
  
 This is part of the Gaussian(R) 16 program.  It is based on
 the Gaussian(R) 09 system (copyright 2009, Gaussian, Inc.),
 the Gaussian(R) 03 system (copyright 2003, Gaussian, Inc.),
 the Gaussian(R) 98 system (copyright 1998, Gaussian, Inc.),
 the Gaussian(R) 94 system (copyright 1995, Gaussian, Inc.),
 the Gaussian 92(TM) system (copyright 1992, Gaussian, Inc.),
 the Gaussian 90(TM) system (copyright 1990, Gaussian, Inc.),
 the Gaussian 88(TM) system (copyright 1988, Gaussian, Inc.),
 the Gaussian 86(TM) system (copyright 1986, Carnegie Mellon
 University), and the Gaussian 82(TM) system (copyright 1983,
 Carnegie Mellon University). Gaussian is a federally registered
 trademark of Gaussian, Inc.
  
 This software contains proprietary and confidential information,
 including trade secrets, belonging to Gaussian, Inc.
  
 This software is provided under written license and may be
 used, copied, transmitted, or stored only in accord with that
 written license.
  
 The following legend is applicable only to US Government
 contracts under FAR:
  
                    RESTRICTED RIGHTS LEGEND
  
 Use, reproduction and disclosure by the US Government is
 subject to restrictions as set forth in subparagraphs (a)
 and (c) of the Commercial Computer Software - Restricted
 Rights clause in FAR 52.227-19.
  
 Gaussian, Inc.
 340 Quinnipiac St., Bldg. 40, Wallingford CT 06492
  
  
 ---------------------------------------------------------------
 Warning -- This program may not be used in any manner that
 competes with the business of Gaussian, Inc. or will provide
 assistance to any competitor of Gaussian, Inc.  The licensee
 of this program is prohibited from giving any competitor of
 Gaussian, Inc. access to this program.  By using this program,
 the user acknowledges that Gaussian, Inc. is engaged in the
 business of creating and licensing software in the field of
 computational chemistry and represents and warrants to the
 licensee that it is not a competitor of Gaussian, Inc. and that
 it will not use this program in any manner prohibited above.
 ---------------------------------------------------------------
  

 Cite this work as:
 Gaussian 16, Revision A.03,
 M. J. Frisch, G. W. Trucks, H. B. Schlegel, G. E. Scuseria, 
 M. A. Robb, J. R. Cheeseman, G. Scalmani, V. Barone, 
 G. A. Petersson, H. Nakatsuji, X. Li, M. Caricato, A. V. Marenich, 
 J. Bloino, B. G. Janesko, R. Gomperts, B. Mennucci, H. P. Hratchian, 
 J. V. Ortiz, A. F. Izmaylov, J. L. Sonnenberg, D. Williams-Young, 
 F. Ding, F. Lipparini, F. Egidi, J. Goings, B. Peng, A. Petrone, 
 T. Henderson, D. Ranasinghe, V. G. Zakrzewski, J. Gao, N. Rega, 
 G. Zheng, W. Liang, M. Hada, M. Ehara, K. Toyota, R. Fukuda, 
 J. Hasegawa, M. Ishida, T. Nakajima, Y. Honda, O. Kitao, H. Nakai, 
 T. Vreven, K. Throssell, J. A. Montgomery, Jr., J. E. Peralta, 
 F. Ogliaro, M. J. Bearpark, J. J. Heyd, E. N. Brothers, K. N. Kudin, 
 V. N. Staroverov, T. A. Keith, R. Kobayashi, J. Normand, 
 K. Raghavachari, A. P. Rendell, J. C. Burant, S. S. Iyengar, 
 J. Tomasi, M. Cossi, J. M. Millam, M. Klene, C. Adamo, R. Cammi, 
 J. W. Ochterski, R. L. Martin, K. Morokuma, O. Farkas, 
 J. B. Foresman, and D. J. Fox, Gaussian, Inc., Wallingford CT, 2016.
 
 ******************************************
 Gaussian 16:  EM64L-G16RevA.03 25-Dec-2016
                 9-Mar-2019 
 ******************************************
 %nprocshared=20
 Will use up to   20 processors via shared memory.
 %mem=5GB
 ----------------------------------------------
 #p m062x/6-311+g(2df,2p) Opt=(CalcFC,ModRedun)
 ----------------------------------------------
 1/10=4,18=120,19=15,26=3,38=1/1,3;
 2/9=110,12=2,17=6,18=5,40=1/2;
 3/5=4,6=6,7=214,11=2,25=1,30=1,71=2,74=-55,140=1/1,2,3;
 4//1;
 5/5=2,38=5/2;
 8/6=4,10=90,11=11/1;
 11/6=1,8=1,9=11,15=111,16=1/1,2,10;
 10/6=1,13=1/2;
 6/7=2,8=2,9=2,10=2,28=1/1;
 7/10=1,18=20,25=1/1,2,3,16;
 1/10=4,18=20,19=15,26=3/3(2);
 2/9=110/2;
 99//99;
 2/9=110/2;
 3/5=4,6=6,7=214,11=2,25=1,30=1,71=1,74=-55/1,2,3;
 4/5=5,16=3,69=1/1;
 5/5=2,38=5/2;
 7//1,2,3,16;
 1/18=20,19=15,26=3/3(-5);
 2/9=110/2;
 6/7=2,8=2,9=2,10=2,19=2,28=1/1;
 99/9=1/99;
 Leave Link    1 at Sat Mar  9 09:15:31 2019, MaxMem=   671088640 cpu:              27.1 elap:               1.4
 (Enter /shared/centos7/gaussian/g16/l101.exe)
 ----------------------------------------
 Gaussian Input Prepared from Scan Object
 ----------------------------------------
 Symbolic Z-matrix:
 Charge =  0 Multiplicity = 1
 O                     1.82473   0.30528  -0.7639 
 O                    -1.95117  -0.53976  -0.46807 
 O                    -0.89368   1.2664    0.322 
 N                     1.50621  -0.19738   0.52782 
 C                     0.22682  -0.85846   0.41762 
 C                    -0.90558   0.09375   0.08388 
 H                    -0.00859  -1.32053   1.37943 
 H                     0.2835   -1.64856  -0.32729 
 H                     1.37544   0.64273   1.08642 
 H                     2.6874   -0.07284  -0.94796 
 H                    -2.64763   0.11376  -0.61466 
 
 The following ModRedundant input section has been read:
 B       2       6 B                                                           
 B       5       7 B                                                           
 B       1       4 B                                                           
 B       5       6 B                                                           
 B       5       8 B                                                           
 B       4       5 B                                                           
 B       1      10 B                                                           
 B       2      11 B                                                           
 B       4       9 B                                                           
 B       3       6 B                                                           
 D      11       4       5       7 S  72 10.000                                
 
 ITRead=  0  0  0  0  0  0  0  0  0  0  0
 MicOpt= -1 -1 -1 -1 -1 -1 -1 -1 -1 -1 -1
 NAtoms=     11 NQM=       11 NQMF=       0 NMMI=      0 NMMIF=      0
                NMic=       0 NMicF=      0.
                    Isotopes and Nuclear Properties:
 (Nuclear quadrupole moments (NQMom) in fm**2, nuclear magnetic moments (NMagM)
  in nuclear magnetons)

  Atom         1           2           3           4           5           6           7           8           9          10
 IAtWgt=          16          16          16          14          12          12           1           1           1           1
 AtmWgt=  15.9949146  15.9949146  15.9949146  14.0030740  12.0000000  12.0000000   1.0078250   1.0078250   1.0078250   1.0078250
 NucSpn=           0           0           0           2           0           0           1           1           1           1
 AtZEff=  -0.0000000  -0.0000000  -0.0000000  -0.0000000  -0.0000000  -0.0000000  -0.0000000  -0.0000000  -0.0000000  -0.0000000
 NQMom=    0.0000000   0.0000000   0.0000000   2.0440000   0.0000000   0.0000000   0.0000000   0.0000000   0.0000000   0.0000000
 NMagM=    0.0000000   0.0000000   0.0000000   0.4037610   0.0000000   0.0000000   2.7928460   2.7928460   2.7928460   2.7928460
 AtZNuc=   8.0000000   8.0000000   8.0000000   7.0000000   6.0000000   6.0000000   1.0000000   1.0000000   1.0000000   1.0000000

  Atom        11
 IAtWgt=           1
 AtmWgt=   1.0078250
 NucSpn=           1
 AtZEff=  -0.0000000
 NQMom=    0.0000000
 NMagM=    2.7928460
 AtZNuc=   1.0000000
 Leave Link  101 at Sat Mar  9 09:15:31 2019, MaxMem=   671088640 cpu:               2.8 elap:               0.2
 (Enter /shared/centos7/gaussian/g16/l103.exe)

 GradGradGradGradGradGradGradGradGradGradGradGradGradGradGradGradGradGrad
 Berny optimization.
 Initialization pass.
                           ----------------------------
                           !    Initial Parameters    !
                           ! (Angstroms and Degrees)  !
 --------------------------                            --------------------------
 ! Name  Definition              Value          Derivative Info.                !
 --------------------------------------------------------------------------------
 ! R1    R(1,4)                  1.4222         calculate D2E/DX2 analytically  !
 ! R2    R(1,10)                 0.9597         calculate D2E/DX2 analytically  !
 ! R3    R(2,6)                  1.3413         calculate D2E/DX2 analytically  !
 ! R4    R(2,11)                 0.9662         calculate D2E/DX2 analytically  !
 ! R5    R(3,6)                  1.1966         calculate D2E/DX2 analytically  !
 ! R6    R(4,5)                  1.4443         calculate D2E/DX2 analytically  !
 ! R7    R(4,9)                  1.0173         calculate D2E/DX2 analytically  !
 ! R8    R(5,6)                  1.5167         calculate D2E/DX2 analytically  !
 ! R9    R(5,7)                  1.0927         calculate D2E/DX2 analytically  !
 ! R10   R(5,8)                  1.0874         calculate D2E/DX2 analytically  !
 ! A1    A(4,1,10)             103.6658         calculate D2E/DX2 analytically  !
 ! A2    A(6,2,11)             107.7498         calculate D2E/DX2 analytically  !
 ! A3    A(1,4,5)              106.9095         calculate D2E/DX2 analytically  !
 ! A4    A(1,4,9)              103.629          calculate D2E/DX2 analytically  !
 ! A5    A(5,4,9)              107.8195         calculate D2E/DX2 analytically  !
 ! A6    A(4,5,6)              113.0042         calculate D2E/DX2 analytically  !
 ! A7    A(4,5,7)              108.4954         calculate D2E/DX2 analytically  !
 ! A8    A(4,5,8)              109.7968         calculate D2E/DX2 analytically  !
 ! A9    A(6,5,7)              107.3564         calculate D2E/DX2 analytically  !
 ! A10   A(6,5,8)              110.1425         calculate D2E/DX2 analytically  !
 ! A11   A(7,5,8)              107.8761         calculate D2E/DX2 analytically  !
 ! A12   A(2,6,3)              123.5356         calculate D2E/DX2 analytically  !
 ! A13   A(2,6,5)              112.0876         calculate D2E/DX2 analytically  !
 ! A14   A(3,6,5)              124.3338         calculate D2E/DX2 analytically  !
 ! D1    D(10,1,4,5)          -124.9485         calculate D2E/DX2 analytically  !
 ! D2    D(10,1,4,9)           121.2966         calculate D2E/DX2 analytically  !
 ! D3    D(11,2,6,3)            -0.4039         calculate D2E/DX2 analytically  !
 ! D4    D(11,2,6,5)           177.2989         calculate D2E/DX2 analytically  !
 ! D5    D(1,4,5,6)            -65.2864         calculate D2E/DX2 analytically  !
 ! D6    D(1,4,5,7)            175.7826         calculate D2E/DX2 analytically  !
 ! D7    D(1,4,5,8)             58.1101         calculate D2E/DX2 analytically  !
 ! D8    D(9,4,5,6)             45.5936         calculate D2E/DX2 analytically  !
 ! D9    D(9,4,5,7)            -73.3374         calculate D2E/DX2 analytically  !
 ! D10   D(9,4,5,8)            168.9901         calculate D2E/DX2 analytically  !
 ! D11   D(11,4,5,7)          -128.6614         Scan                            !
 ! D12   D(4,5,6,2)            158.0541         calculate D2E/DX2 analytically  !
 ! D13   D(4,5,6,3)            -24.2648         calculate D2E/DX2 analytically  !
 ! D14   D(7,5,6,2)            -82.3572         calculate D2E/DX2 analytically  !
 ! D15   D(7,5,6,3)             95.3239         calculate D2E/DX2 analytically  !
 ! D16   D(8,5,6,2)             34.8488         calculate D2E/DX2 analytically  !
 ! D17   D(8,5,6,3)           -147.4701         calculate D2E/DX2 analytically  !
 --------------------------------------------------------------------------------
 Trust Radius=3.00D-01 FncErr=1.00D-07 GrdErr=1.00D-06 EigMax=2.50D+02 EigMin=1.00D-04
 Number of optimizations in scan=  73
 Number of steps in this run=     51 maximum allowed number of steps=    100.
 GradGradGradGradGradGradGradGradGradGradGradGradGradGradGradGradGradGrad

 Leave Link  103 at Sat Mar  9 09:15:31 2019, MaxMem=   671088640 cpu:               2.0 elap:               0.1
 (Enter /shared/centos7/gaussian/g16/l202.exe)
                          Input orientation:                          
 ---------------------------------------------------------------------
 Center     Atomic      Atomic             Coordinates (Angstroms)
 Number     Number       Type             X           Y           Z
 ---------------------------------------------------------------------
      1          8           0        1.824726    0.305281   -0.763898
      2          8           0       -1.951165   -0.539757   -0.468067
      3          8           0       -0.893683    1.266395    0.322000
      4          7           0        1.506208   -0.197379    0.527823
      5          6           0        0.226819   -0.858458    0.417619
      6          6           0       -0.905584    0.093748    0.083884
      7          1           0       -0.008589   -1.320531    1.379430
      8          1           0        0.283496   -1.648561   -0.327292
      9          1           0        1.375440    0.642730    1.086425
     10          1           0        2.687397   -0.072838   -0.947963
     11          1           0       -2.647633    0.113755   -0.614661
 ---------------------------------------------------------------------
                    Distance matrix (angstroms):
                    1          2          3          4          5
     1  O    0.000000
     2  O    3.880587   0.000000
     3  O    3.081016   2.237110   0.000000
     4  N    1.422204   3.614201   2.818594   0.000000
     5  C    2.302950   2.372683   2.404094   1.444301   0.000000
     6  C    2.866718   1.341349   1.196638   2.469530   1.516711
     7  H    3.255482   2.792213   2.931507   2.069134   1.092707
     8  H    2.526562   2.498594   3.210031   2.081388   1.087367
     9  H    1.933759   3.857593   2.474313   1.017310   2.005043
    10  H    0.959716   4.686637   4.028708   1.894376   2.921722
    11  H    4.478945   0.966248   2.298315   4.319313   3.205195
                    6          7          8          9         10
     6  C    0.000000
     7  H    2.117363   0.000000
     8  H    2.149097   1.762333   0.000000
     9  H    2.551380   2.419872   2.905332   0.000000
    10  H    3.741921   3.773836   2.940557   2.524283   0.000000
    11  H    1.876992   3.605292   3.432179   4.399844   5.348687
                   11
    11  H    0.000000
 Stoichiometry    C2H5NO3
 Framework group  C1[X(C2H5NO3)]
 Deg. of freedom    27
 Full point group                 C1      NOp   1
 Largest Abelian subgroup         C1      NOp   1
 Largest concise Abelian subgroup C1      NOp   1
                         Standard orientation:                         
 ---------------------------------------------------------------------
 Center     Atomic      Atomic             Coordinates (Angstroms)
 Number     Number       Type             X           Y           Z
 ---------------------------------------------------------------------
      1          8           0        1.824726    0.305281   -0.763898
      2          8           0       -1.951165   -0.539757   -0.468067
      3          8           0       -0.893683    1.266395    0.322000
      4          7           0        1.506208   -0.197379    0.527823
      5          6           0        0.226819   -0.858458    0.417619
      6          6           0       -0.905584    0.093748    0.083884
      7          1           0       -0.008589   -1.320531    1.379430
      8          1           0        0.283496   -1.648561   -0.327292
      9          1           0        1.375440    0.642730    1.086425
     10          1           0        2.687397   -0.072838   -0.947963
     11          1           0       -2.647633    0.113755   -0.614661
 ---------------------------------------------------------------------
 Rotational constants (GHZ):           7.0936841           2.4007499           2.1817227
 Leave Link  202 at Sat Mar  9 09:15:31 2019, MaxMem=   671088640 cpu:               0.2 elap:               0.0
 (Enter /shared/centos7/gaussian/g16/l301.exe)
 Standard basis: 6-311+G(2df,2p) (5D, 7F)
 Ernie: Thresh=  0.10000D-02 Tol=  0.10000D-05 Strict=F.
 There are   279 symmetry adapted cartesian basis functions of A   symmetry.
 There are   249 symmetry adapted basis functions of A   symmetry.
   249 basis functions,   367 primitive gaussians,   279 cartesian basis functions
    24 alpha electrons       24 beta electrons
       nuclear repulsion energy       248.1845351432 Hartrees.
 IExCor= 4336 DFT=T Ex+Corr=M062X ExCW=0 ScaHFX=  0.540000
 ScaDFX=  1.000000  1.000000  1.000000  1.000000 ScalE2=  1.000000  1.000000
 IRadAn=      5 IRanWt=     -1 IRanGd=            0 ICorTp=0 IEmpDi=  4
 NAtoms=   11 NActive=   11 NUniq=   11 SFac= 1.00D+00 NAtFMM=   60 NAOKFM=F Big=F
 Integral buffers will be    131072 words long.
 Raffenetti 2 integral format.
 Two-electron integral symmetry is turned on.
 Leave Link  301 at Sat Mar  9 09:15:32 2019, MaxMem=   671088640 cpu:               1.0 elap:               0.1
 (Enter /shared/centos7/gaussian/g16/l302.exe)
 NPDir=0 NMtPBC=     1 NCelOv=     1 NCel=       1 NClECP=     1 NCelD=      1
         NCelK=      1 NCelE2=     1 NClLst=     1 CellRange=     0.0.
 One-electron integrals computed using PRISM.
 One-electron integral symmetry used in STVInt
 NBasis=   249 RedAO= T EigKep=  4.94D-05  NBF=   249
 NBsUse=   249 1.00D-06 EigRej= -1.00D+00 NBFU=   249
 Precomputing XC quadrature grid using
 IXCGrd= 4 IRadAn=           5 IRanWt=          -1 IRanGd=           0 AccXCQ= 0.00D+00.
 Generated NRdTot=       0 NPtTot=           0 NUsed=           0 NTot=          32
 NSgBfM=   279   279   279   279   279 MxSgAt=    11 MxSgA2=    11.
 Leave Link  302 at Sat Mar  9 09:15:32 2019, MaxMem=   671088640 cpu:               6.8 elap:               0.4
 (Enter /shared/centos7/gaussian/g16/l303.exe)
 DipDrv:  MaxL=1.
 Leave Link  303 at Sat Mar  9 09:15:32 2019, MaxMem=   671088640 cpu:               0.5 elap:               0.0
 (Enter /shared/centos7/gaussian/g16/l401.exe)
 ExpMin= 4.38D-02 ExpMax= 8.59D+03 ExpMxC= 1.30D+03 IAcc=3 IRadAn=         5 AccDes= 0.00D+00
 Harris functional with IExCor= 1009 and IRadAn=       5 diagonalized for initial guess.
 HarFok:  IExCor= 1009 AccDes= 0.00D+00 IRadAn=         5 IDoV= 1 UseB2=F ITyADJ=14
 ICtDFT=  3500011 ScaDFX=  1.000000  1.000000  1.000000  1.000000
 FoFCou: FMM=F IPFlag=           0 FMFlag=      100000 FMFlg1=           0
         NFxFlg=           0 DoJE=T BraDBF=F KetDBF=T FulRan=T
         wScrn=  0.000000 ICntrl=       500 IOpCl=  0 I1Cent=   200000004 NGrid=           0
         NMat0=    1 NMatS0=      1 NMatT0=    0 NMatD0=    1 NMtDS0=    0 NMtDT0=    0
 Petite list used in FoFCou.
 Harris En= -359.415187860439    
 JPrj=0 DoOrth=F DoCkMO=F.
 Leave Link  401 at Sat Mar  9 09:15:33 2019, MaxMem=   671088640 cpu:              13.2 elap:               0.7
 (Enter /shared/centos7/gaussian/g16/l502.exe)
 Keep R1 ints in memory in canonical form, NReq=506568544.
 FoFCou: FMM=F IPFlag=           0 FMFlag=           0 FMFlg1=           0
         NFxFlg=           0 DoJE=F BraDBF=F KetDBF=F FulRan=T
         wScrn=  0.000000 ICntrl=       600 IOpCl=  0 I1Cent=           0 NGrid=           0
         NMat0=    1 NMatS0=  31125 NMatT0=    0 NMatD0=    1 NMtDS0=    0 NMtDT0=    0
 Symmetry not used in FoFCou.
                                                                                                                                                                                                                                                                                                                                                                                                                                                                                                                                                                                                                                                                                                                                                                                                                                                                                                                                                                                                                                                                                                                                                                                                                                                                                                                                                                                                                                                                                                                                                                                                                                                                                                                                                                                                                                                                                                                                                                                                                                                                                                                                                                                                                                                                                                                                                                                                                                                                                                                                                                                                                                                                                                                                                                                                                                                                                                                                                                                                                                                                                                                                                                                                                                                                                                                                                                                                                                                                                                                                                                                                                                                                                                                                                                                                                                                                                                                                                                                                                                                                                                                                                                                                                                                                                                                                                                                                                                                                                                                                                                                                                                                                                                                                                                                                                                                                                                                                                                                                                                                                                                                                                                                                                                                                                                                                                                                                                                                                                                                                                                                                                                                                                                                                                                                                                                                                                                                                                                                                                                                                                                                                                                                                                                                                                                                                                                                                                                                                                                                                                                                                                                                                                                                                                                                                                                                                                                                                                                                                                                                                                                                                                                                                                                                                                                                                                                                                                                                                                                                                                                                                                                                                                                                                                                                                                                                                                                                                                                                                                                                                                                                                                                                                                                                                                                                                                                                                                                                                                                                                                                                                                                                                                                                                                                                                                                                                                                                                                                                                                                                                                                            78D-02-0.223D-01-0.223D-02 0.269D+00
 Coeff:      0.761D+00
 Gap=     0.336 Goal=   None    Shift=    0.000
 RMSDP=3.21D-09 MaxDP=1.14D-07 DE=-2.32D-11 OVMax= 4.12D-07

 SCF Done:  E(RM062X) =  -359.593923423     A.U. after   13 cycles
            NFock= 13  Conv=0.32D-08     -V/T= 2.0031
 KE= 3.584775996661D+02 PE=-1.341963289431D+03 EE= 3.757072311989D+02
 Leave Link  502 at Sat Mar  9 09:14:32 2019, MaxMem=   671088640 cpu:             475.0 elap:              32.7
 (Enter /shared/centos7/gaussian/g16/l801.exe)
 DoSCS=F DFT=T ScalE2(SS,OS)=  1.000000  1.000000
 Range of M.O.s used for correlation:     1   249
 NBasis=   249 NAE=    24 NBE=    24 NFC=     0 NFV=     0
 NROrb=    249 NOA=    24 NOB=    24 NVA=   225 NVB=   225

 **** Warning!!: The largest alpha MO coefficient is  0.48432476D+02

 Leave Link  801 at Sat Mar  9 09:14:32 2019, MaxMem=   671088640 cpu:               0.5 elap:               0.1
 (Enter /shared/centos7/gaussian/g16/l1101.exe)
 Using compressed storage, NAtomX=    11.
 Will process     12 centers per pass.
 Leave Link 1101 at Sat Mar  9 09:14:33 2019, MaxMem=   671088640 cpu:               8.6 elap:               0.5
 (Enter /shared/centos7/gaussian/g16/l1102.exe)
 Symmetrizing basis deriv contribution to polar:
 IMax=3 JMax=2 DiffMx= 0.00D+00
 Leave Link 1102 at Sat Mar  9 09:14:33 2019, MaxMem=   671088640 cpu:               1.1 elap:               0.1
 (Enter /shared/centos7/gaussian/g16/l1110.exe)
 Forming Gx(P) for the SCF density, NAtomX=    11.
 Integral derivatives from FoFJK, PRISM(SPDF).
 Do as many integral derivatives as possible in FoFJK.
 G2DrvN: MDV=     671087712.
 G2DrvN: will do    12 centers at a time, making    1 passes.
 Calling FoFCou, ICntrl=  3107 FMM=F I1Cent=   0 AccDes= 0.00D+00.
 FoFJK:  IHMeth= 1 ICntrl=    3107 DoSepK=F KAlg= 0 I1Cent=           0 FoldK=F
 IRaf=         0 NMat=       1 IRICut=       1 DoRegI=T DoRafI=F ISym2E= 0 IDoP0=0 IntGTp=1.
 FoFCou: FMM=F IPFlag=           0 FMFlag=      100000 FMFlg1=           0
         NFxFlg=           0 DoJE=F BraDBF=F KetDBF=F FulRan=T
         wScrn=  0.000000 ICntrl=      3107 IOpCl=  0 I1Cent=           0 NGrid=           0
         NMat0=    1 NMatS0=      1 NMatT0=    0 NMatD0=    1 NMtDS0=    0 NMtDT0=    0
 Symmetry not used in FoFCou.
 End of G2Drv F.D. properties file   721 does not exist.
 End of G2Drv F.D. properties file   722 does not exist.
 End of G2Drv F.D. properties file   788 does not exist.
 Leave Link 1110 at Sat Mar  9 09:15:31 2019, MaxMem=   671088640 cpu:            1155.6 elap:              57.8
 (Enter /shared/centos7/gaussian/g16/l1002.exe)
 Minotr:  Closed shell wavefunction.
          IDoAtm=11111111111
          Direct CPHF calculation.
          Differentiating once with respect to nuclear coordinates.
          Requested convergence is 1.0D-08 RMS, and 1.0D-07 maximum.
          Secondary convergence is 1.0D-12 RMS, and 1.0D-12 maximum.
          NewPWx=T KeepS1=F KeepF1=F KeepIn=T MapXYZ=F SortEE=F KeepMc=T.
         3342 words used for storage of precomputed grid.
 Keep R1 ints in memory in canonical form, NReq=506509625.
 FoFCou: FMM=F IPFlag=           0 FMFlag=           0 FMFlg1=           0
         NFxFlg=           0 DoJE=F BraDBF=F KetDBF=F FulRan=T
         wScrn=  0.000000 ICntrl=       600 IOpCl=  0 I1Cent=           0 NGrid=           0
         NMat0=    1 NMatS0=  31125 NMatT0=    0 NMatD0=    1 NMtDS0=    0 NMtDT0=    0
 Symmetry not used in FoFCou.
 Two-electron integral symmetry not used.
          MDV=     671088640 using IRadAn=       1.
          Solving linear equations simultaneously, MaxMat=       0.
          There are    36 degrees of freedom in the 1st order CPHF.  IDoFFX=6 NUNeed=     0.
     30 vectors produced by pass  0 Test12= 1.50D-14 2.78D-09 XBig12= 7.23D-02 6.90D-02.
 AX will form    30 AO Fock derivatives at one time.
     30 vectors produced by pass  1 Test12= 1.50D-14 2.78D-09 XBig12= 1.15D-02 4.30D-02.
     30 vectors produced by pass  2 Test12= 1.50D-14 2.78D-09 XBig12= 4.21D-04 3.35D-03.
     30 vectors produced by pass  3 Test12= 1.50D-14 2.78D-09 XBig12= 4.24D-06 3.29D-04.
     30 vectors produced by pass  4 Test12= 1.50D-14 2.78D-09 XBig12= 3.92D-08 3.19D-05.
     30 vectors produced by pass  5 Test12= 1.50D-14 2.78D-09 XBig12= 3.00D-10 1.98D-06.
     26 vectors produced by pass  6 Test12= 1.50D-14 2.78D-09 XBig12= 1.78D-12 1.35D-07.
      6 vectors produced by pass  7 Test12= 1.50D-14 2.78D-09 XBig12= 7.57D-15 8.25D-09.
 InvSVY:  IOpt=1 It=  1 EMax= 2.11D-15
 Solved reduced A of dimension   212 with    30 vectors.
 End of Minotr F.D. properties file   721 does not exist.
 End of Minotr F.D. properties file   722 does not exist.
 End of Minotr F.D. properties file   788 does not exist.
 Leave Link 1002 at Sat Mar  9 09:16:34 2019, MaxMem=   671088640 cpu:            1276.1 elap:              63.9
 (Enter /shared/centos7/gaussian/g16/l601.exe)
 Copying SCF densities to generalized density rwf, IOpCl= 0 IROHF=0.

 **********************************************************************

            Population analysis using the SCF density.

 **********************************************************************

 Orbital symmetries:
       Occupied  (A) (A) (A) (A) (A) (A) (A) (A) (A) (A) (A) (A)
                 (A) (A) (A) (A) (A) (A) (A) (A) (A) (A) (A) (A)
       Virtual   (A) (A) (A) (A) (A) (A) (A) (A) (A) (A) (A) (A)
                 (A) (A) (A) (A) (A) (A) (A) (A) (A) (A) (A) (A)
                 (A) (A) (A) (A) (A) (A) (A) (A) (A) (A) (A) (A)
                 (A) (A) (A) (A) (A) (A) (A) (A) (A) (A) (A) (A)
                 (A) (A) (A) (A) (A) (A) (A) (A) (A) (A) (A) (A)
                 (A) (A) (A) (A) (A) (A) (A) (A) (A) (A) (A) (A)
                 (A) (A) (A) (A) (A) (A) (A) (A) (A) (A) (A) (A)
                 (A) (A) (A) (A) (A) (A) (A) (A) (A) (A) (A) (A)
                 (A) (A) (A) (A) (A) (A) (A) (A) (A) (A) (A) (A)
                 (A) (A) (A) (A) (A) (A) (A) (A) (A) (A) (A) (A)
                 (A) (A) (A) (A) (A) (A) (A) (A) (A) (A) (A) (A)
                 (A) (A) (A) (A) (A) (A) (A) (A) (A) (A) (A) (A)
                 (A) (A) (A) (A) (A) (A) (A) (A) (A) (A) (A) (A)
                 (A) (A) (A) (A) (A) (A) (A) (A) (A) (A) (A) (A)
                 (A) (A) (A) (A) (A) (A) (A) (A) (A) (A) (A) (A)
                 (A) (A) (A) (A) (A) (A) (A) (A) (A) (A) (A) (A)
                 (A) (A) (A) (A) (A) (A) (A) (A) (A) (A) (A) (A)
                 (A) (A) (A) (A) (A) (A) (A) (A) (A) (A) (A) (A)
                 (A) (A) (A) (A) (A) (A) (A) (A) (A)
 The electronic state is 1-A.
 Alpha  occ. eigenvalues --  -19.68197 -19.65610 -19.62649 -14.79770 -10.68329
 Alpha  occ. eigenvalues --  -10.58686  -1.25156  -1.19928  -1.15550  -0.96510
 Alpha  occ. eigenvalues --   -0.81644  -0.70370  -0.61766  -0.60969  -0.59149
 Alpha  occ. eigenvalues --   -0.55410  -0.53599  -0.52504  -0.48600  -0.46612
 Alpha  occ. eigenvalues --   -0.41039  -0.38657  -0.37632  -0.32837
 Alpha virt. eigenvalues --    0.00805   0.02448   0.03519   0.04264   0.04920
 Alpha virt. eigenvalues --    0.07310   0.07499   0.07800   0.08501   0.11124
 Alpha virt. eigenvalues --    0.12316   0.15355   0.17317   0.18089   0.18630
 Alpha virt. eigenvalues --    0.20192   0.21688   0.21964   0.22918   0.23408
 Alpha virt. eigenvalues --    0.24879   0.25837   0.27123   0.28075   0.28293
 Alpha virt. eigenvalues --    0.29074   0.29878   0.31227   0.33909   0.34693
 Alpha virt. eigenvalues --    0.35525   0.37093   0.38226   0.40680   0.48289
 Alpha virt. eigenvalues --    0.49857   0.52641   0.56195   0.56740   0.57026
 Alpha virt. eigenvalues --    0.57956   0.59925   0.61126   0.62976   0.64451
 Alpha virt. eigenvalues --    0.66242   0.69180   0.69784   0.71400   0.74951
 Alpha virt. eigenvalues --    0.76157   0.78985   0.79687   0.83141   0.86922
 Alpha virt. eigenvalues --    0.90131   0.93794   0.96811   0.98074   0.99187
 Alpha virt. eigenvalues --    1.02234   1.06086   1.06878   1.08650   1.10884
 Alpha virt. eigenvalues --    1.12462   1.14133   1.15059   1.17699   1.19632
 Alpha virt. eigenvalues --    1.19986   1.22862   1.23962   1.29381   1.31143
 Alpha virt. eigenvalues --    1.32278   1.34030   1.35999   1.38943   1.42883
 Alpha virt. eigenvalues --    1.43867   1.47347   1.50529   1.52031   1.54429
 Alpha virt. eigenvalues --    1.55101   1.56448   1.59954   1.64336   1.68303
 Alpha virt. eigenvalues --    1.73101   1.76676   1.78476   1.79991   1.82199
 Alpha virt. eigenvalues --    1.84044   1.90546   1.95904   2.03913   2.07298
 Alpha virt. eigenvalues --    2.13139   2.17136   2.24311   2.29955   2.33027
 Alpha virt. eigenvalues --    2.34819   2.36743   2.49277   2.51908   2.59831
 Alpha virt. eigenvalues --    2.63802   2.72319   2.74649   2.78496   2.81411
 Alpha virt. eigenvalues --    2.83089   2.87695   2.98846   3.03381   3.08627
 Alpha virt. eigenvalues --    3.11466   3.17038   3.17581   3.20100   3.23813
 Alpha virt. eigenvalues --    3.27538   3.31980   3.36802   3.38155   3.43072
 Alpha virt. eigenvalues --    3.46540   3.50692   3.53229   3.54272   3.56099
 Alpha virt. eigenvalues --    3.58431   3.62532   3.64853   3.68395   3.71880
 Alpha virt. eigenvalues --    3.75362   3.81654   3.83659   3.88073   3.88902
 Alpha virt. eigenvalues --    3.91170   3.96549   3.99922   4.03471   4.09264
 Alpha virt. eigenvalues --    4.10494   4.14775   4.19377   4.20788   4.23743
 Alpha virt. eigenvalues --    4.26236   4.32806   4.35544   4.41422   4.49526
 Alpha virt. eigenvalues --    4.52346   4.62043   4.73471   4.76864   4.87079
 Alpha virt. eigenvalues --    4.97089   5.05262   5.05964   5.07395   5.10432
 Alpha virt. eigenvalues --    5.11576   5.15826   5.16901   5.18906   5.20189
 Alpha virt. eigenvalues --    5.22551   5.26016   5.27550   5.32301   5.35020
 Alpha virt. eigenvalues --    5.37889   5.44031   5.44907   5.49501   5.51312
 Alpha virt. eigenvalues --    5.54060   5.55515   5.61745   5.62752   5.70622
 Alpha virt. eigenvalues --    5.74693   5.77256   5.91029   5.94656   5.97767
 Alpha virt. eigenvalues --    6.05717   6.27437   6.38385   6.59347   6.76798
 Alpha virt. eigenvalues --    6.81469   6.88469   6.92157   6.93811   7.00448
 Alpha virt. eigenvalues --    7.06871   7.12922   7.14844   7.15317   7.18797
 Alpha virt. eigenvalues --    7.23992   7.27391   7.29149   7.49569   7.53297
 Alpha virt. eigenvalues --    7.58618   7.66025   7.69155   7.71612  24.44224
 Alpha virt. eigenvalues --   24.82057  35.76277  50.10385  50.11411  50.28712
          Condensed to atoms (all electrons):
               1          2          3          4          5          6
     1  O    8.001360  -0.003152  -0.004123   0.131786  -0.048355   0.017459
     2  O   -0.003152   7.949356  -0.093864   0.004304  -0.111616   0.282802
     3  O   -0.004123  -0.093864   8.164022  -0.002619  -0.058471   0.389793
     4  N    0.131786   0.004304  -0.002619   6.977653  -0.006195   0.086977
     5  C   -0.048355  -0.111616  -0.058471  -0.006195   5.616082  -0.199771
     6  C    0.017459   0.282802   0.389793   0.086977  -0.199771   5.343864
     7  H    0.008148   0.004905  -0.001018  -0.051526   0.473948  -0.079411
     8  H   -0.014034  -0.000400   0.004518  -0.029161   0.452173  -0.066393
     9  H   -0.074122   0.001208   0.011811   0.282472   0.065464  -0.084345
    10  H    0.214301   0.000376   0.001099  -0.055644   0.051116  -0.035997
    11  H   -0.000207   0.264672   0.017791   0.001245  -0.028383   0.016164
               7          8          9         10         11
     1  O    0.008148  -0.014034  -0.074122   0.214301  -0.000207
     2  O    0.004905  -0.000400   0.001208   0.000376   0.264672
     3  O   -0.001018   0.004518   0.011811   0.001099   0.017791
     4  N   -0.051526  -0.029161   0.282472  -0.055644   0.001245
     5  C    0.473948   0.452173   0.065464   0.051116  -0.028383
     6  C   -0.079411  -0.066393  -0.084345  -0.035997   0.016164
     7  H    0.495705  -0.019209  -0.000282  -0.000168  -0.000525
     8  H   -0.019209   0.484407   0.004858   0.002258   0.000076
     9  H   -0.000282   0.004858   0.525502   0.011444  -0.000221
    10  H   -0.000168   0.002258   0.011444   0.523272  -0.000046
    11  H   -0.000525   0.000076  -0.000221  -0.000046   0.450956
 Mulliken charges:
               1
     1  O   -0.229061
     2  O   -0.298591
     3  O   -0.428939
     4  N   -0.339290
     5  C   -0.205994
     6  C    0.328859
     7  H    0.169432
     8  H    0.180908
     9  H    0.256210
    10  H    0.287988
    11  H    0.278478
 Sum of Mulliken charges =  -0.00000
 Mulliken charges with hydrogens summed into heavy atoms:
               1
     1  O    0.058927
     2  O   -0.020113
     3  O   -0.428939
     4  N   -0.083080
     5  C    0.144346
     6  C    0.328859
 APT charges:
               1
     1  O   -0.794873
     2  O   -0.633567
     3  O   -0.417764
     4  N   -0.530280
     5  C   -0.631130
     6  C    0.296978
     7  H    0.431131
     8  H    0.387703
     9  H    0.463750
    10  H    0.735843
    11  H    0.692210
 Sum of APT charges =  -0.00000
 APT charges with hydrogens summed into heavy atoms:
               1
     1  O   -0.059030
     2  O    0.058643
     3  O   -0.417764
     4  N   -0.066530
     5  C    0.187704
     6  C    0.296978
 Electronic spatial extent (au):  <R**2>=            578.7687
 Charge=              0.0000 electrons
 Dipole moment (field-independent basis, Debye):
    X=             -0.3030    Y=             -1.7271    Z=              0.1568  Tot=              1.7605
 Quadrupole moment (field-independent basis, Debye-Ang):
   XX=            -27.9390   YY=            -38.7283   ZZ=            -34.0679
   XY=             -0.7516   XZ=             -0.4295   YZ=             -0.0222
 Traceless Quadrupole moment (field-independent basis, Debye-Ang):
   XX=              5.6394   YY=             -5.1499   ZZ=             -0.4895
   XY=             -0.7516   XZ=             -0.4295   YZ=             -0.0222
 Octapole moment (field-independent basis, Debye-Ang**2):
  XXX=             -5.3511  YYY=             -3.4735  ZZZ=             -0.7423  XYY=              3.9691
  XXY=              6.3443  XXZ=            -15.1007  XZZ=              0.0774  YZZ=              0.7743
  YYZ=             -0.7632  XYZ=              6.9761
 Hexadecapole moment (field-independent basis, Debye-Ang**3):
 XXXX=           -328.9416 YYYY=           -149.8712 ZZZZ=            -91.1270 XXXY=            -13.2099
 XXXZ=            -17.5942 YYYX=              4.8855 YYYZ=              1.3895 ZZZX=             -3.9644
 ZZZY=              0.6360 XXYY=           -110.2700 XXZZ=            -81.8940 YYZZ=            -38.5831
 XXYZ=              4.3290 YYXZ=              0.2075 ZZXY=              1.4036
 N-N= 2.481845351432D+02 E-N=-1.341963296371D+03  KE= 3.584775996661D+02
  Exact polarizability:   0.000   0.000   0.000   0.000   0.000   0.000
 Approx polarizability:  51.999   1.554  55.683   0.500   1.983  48.202
 No NMR shielding tensors so no spin-rotation constants.
 Leave Link  601 at Sat Mar  9 09:16:35 2019, MaxMem=   671088640 cpu:               6.6 elap:               0.4
 (Enter /shared/centos7/gaussian/g16/l701.exe)
 ... and contract with generalized density number  0.
 Compute integral second derivatives.
 Leave Link  701 at Sat Mar  9 09:16:35 2019, MaxMem=   671088640 cpu:              11.0 elap:               0.6
 (Enter /shared/centos7/gaussian/g16/l702.exe)
 L702 exits ... SP integral derivatives will be done elsewhere.
 Leave Link  702 at Sat Mar  9 09:16:35 2019, MaxMem=   671088640 cpu:               0.4 elap:               0.0
 (Enter /shared/centos7/gaussian/g16/l703.exe)
 Integral derivatives from FoFJK, PRISM(SPDF).
 Compute integral second derivatives, UseDBF=F ICtDFT=           0.
 Calling FoFJK, ICntrl=    100147 FMM=F ISym2X=0 I1Cent= 0 IOpClX= 0 NMat=1 NMatS=1 NMatT=0.
 FoFJK:  IHMeth= 1 ICntrl=  100147 DoSepK=F KAlg= 0 I1Cent=           0 FoldK=F
 IRaf=         0 NMat=       1 IRICut=       1 DoRegI=T DoRafI=F ISym2E= 0 IDoP0=0 IntGTp=1.
 FoFCou: FMM=F IPFlag=           0 FMFlag=      100000 FMFlg1=         800
         NFxFlg=           0 DoJE=F BraDBF=F KetDBF=F FulRan=T
         wScrn=  0.000000 ICntrl=    100147 IOpCl=  0 I1Cent=           0 NGrid=           0
         NMat0=    1 NMatS0=      1 NMatT0=    0 NMatD0=    1 NMtDS0=    0 NMtDT0=    0
 Symmetry not used in FoFCou.
 Leave Link  703 at Sat Mar  9 09:18:14 2019, MaxMem=   671088640 cpu:            1970.7 elap:              98.6
 (Enter /shared/centos7/gaussian/g16/l716.exe)
 Dipole        =-1.19219499D-01-6.79493914D-01 6.16819194D-02
 Polarizability= 0.00000000D+00 0.00000000D+00 0.00000000D+00
                 0.00000000D+00 0.00000000D+00 0.00000000D+00
 ***** Axes restored to original set *****
 -------------------------------------------------------------------
 Center     Atomic                   Forces (Hartrees/Bohr)
 Number     Number              X              Y              Z
 -------------------------------------------------------------------
      1        8           0.000000843   -0.000002637    0.000000113
      2        8          -0.000005141   -0.000007660   -0.000005237
      3        8          -0.000003945   -0.000007298   -0.000005458
      4        7           0.000001480    0.000036489   -0.000014539
      5        6          -0.000020139   -0.000051056    0.000006231
      6        6           0.000009609    0.000023309    0.000029252
      7        1          -0.000000934   -0.000004276   -0.000007869
      8        1           0.000012708    0.000014437   -0.000004639
      9        1           0.000008941   -0.000004406    0.000004518
     10        1          -0.000005233    0.000003727   -0.000002254
     11        1           0.000001813   -0.000000629   -0.000000118
 -------------------------------------------------------------------
 Cartesian Forces:  Max     0.000051056 RMS     0.000014511
 Force constants in Cartesian coordinates: 
                1             2             3             4             5 
      1  0.535442D+00
      2 -0.178482D+00  0.173756D+00
      3 -0.156275D+00 -0.527224D-01  0.315469D+00
      4  0.307521D-03 -0.460028D-03  0.192714D-02  0.538286D+00
      5 -0.348013D-03  0.507214D-03 -0.220691D-03 -0.127636D+00  0.466681D+00
      6 -0.123125D-03  0.317185D-03  0.102153D-02  0.175579D+00  0.356779D-01
      7 -0.882315D-03 -0.803154D-03  0.107004D-02  0.408498D-02 -0.647634D-01
      8  0.769670D-03  0.233722D-02 -0.151967D-02 -0.567951D-01 -0.600848D-01
      9  0.737106D-03 -0.194210D-04  0.203188D-03 -0.226702D-01 -0.448757D-01
     10 -0.780225D-01 -0.108488D-01  0.440023D-01 -0.839807D-02  0.474605D-02
     11 -0.111050D-01 -0.796601D-01  0.504988D-01  0.492481D-02 -0.105525D-02
     12  0.398858D-01  0.567980D-01 -0.225619D+00 -0.433650D-02  0.267864D-02
     13 -0.129886D-01 -0.235943D-02  0.600452D-02 -0.281051D-01  0.156931D-01
     14 -0.204396D-01 -0.988163D-02  0.900517D-02 -0.134437D-01  0.115690D-01
     15  0.479628D-01  0.260078D-01 -0.150523D-01 -0.192771D-01  0.486617D-02
     16  0.405814D-02  0.227444D-02 -0.348130D-02 -0.236460D+00 -0.341095D-01
     17  0.316682D-03 -0.179376D-02  0.667663D-03 -0.537351D-01 -0.148422D+00
     18  0.107784D-02 -0.218991D-02  0.552995D-03 -0.803976D-01 -0.306555D-01
     19 -0.712237D-02 -0.524044D-02  0.246694D-02 -0.256091D-02 -0.651816D-03
     20 -0.276260D-02  0.771362D-04  0.374540D-03  0.536450D-03  0.158505D-03
     21 -0.311852D-04 -0.270481D-03  0.256424D-02 -0.103321D-02  0.233598D-03
     22  0.230358D-02  0.196047D-02 -0.405590D-03 -0.103009D-02 -0.563764D-03
     23  0.175759D-02  0.145422D-02  0.507067D-03 -0.112258D-02  0.154156D-02
     24 -0.165823D-03  0.161463D-02  0.157843D-02  0.936363D-04  0.586371D-03
     25 -0.621499D-02  0.427965D-02  0.791391D-02  0.192670D-02  0.158836D-02
     26 -0.332666D-02  0.147636D-01  0.241121D-01 -0.207125D-03 -0.661192D-03
     27  0.167798D-01 -0.228205D-01 -0.381567D-01  0.954526D-03  0.317044D-03
     28 -0.437354D+00  0.189725D+00  0.965752D-01  0.580470D-03 -0.163810D-03
     29  0.213584D+00 -0.101438D+00 -0.307199D-01 -0.152808D-03  0.144693D-03
     30  0.499923D-01 -0.693178D-02 -0.423007D-01 -0.488441D-03 -0.128034D-03
     31  0.473893D-03 -0.452986D-04  0.202215D-03 -0.268632D+00  0.206209D+00
     32  0.363573D-04 -0.121817D-03  0.172944D-04  0.248091D+00 -0.270379D+00
     33  0.159858D-03  0.216839D-03 -0.260720D-03 -0.503509D-01  0.315202D-01
                6             7             8             9            10 
      6  0.117741D+00
      7 -0.229669D-01  0.987067D-01
      8 -0.406876D-01  0.139092D-01  0.875510D+00
      9  0.108402D-01  0.294213D-01  0.170225D+00  0.780109D-01
     10 -0.213903D-02  0.196070D-02 -0.318075D-02 -0.123277D-02  0.384495D+00
     11  0.253110D-02  0.429913D-02  0.109598D-02  0.240851D-02  0.727602D-01
     12 -0.100974D-02  0.420216D-03  0.164439D-02 -0.165254D-02 -0.670422D-01
     13 -0.154962D-01  0.718352D-02  0.504887D-02 -0.579102D-02 -0.197330D+00
     14 -0.603092D-02  0.276790D-01 -0.453738D-01  0.279516D-02 -0.387932D-01
     15  0.485732D-02  0.172574D-03 -0.959096D-02  0.244442D-01 -0.289262D-01
     16 -0.767480D-01 -0.114464D+00  0.300656D-01 -0.823475D-02 -0.454106D-01
     17 -0.391367D-01  0.113286D-01 -0.764201D+00 -0.129949D+00 -0.133818D-01
     18 -0.103935D+00 -0.135318D-01 -0.123901D+00 -0.107916D+00 -0.696120D-02
     19  0.137597D-02 -0.256549D-02  0.178716D-02  0.338775D-02 -0.735980D-02
     20 -0.115931D-02  0.284816D-02 -0.547372D-03 -0.339118D-02 -0.494155D-02
     21  0.367812D-03 -0.495857D-03 -0.746817D-03  0.196988D-03  0.970023D-04
     22 -0.185117D-02 -0.316904D-02  0.519599D-02 -0.360890D-02 -0.302109D-02
     23  0.962639D-03  0.350054D-02 -0.285976D-02  0.219669D-02 -0.458112D-02
     24 -0.410404D-03 -0.118180D-02  0.327868D-02 -0.798645D-03 -0.401659D-03
     25  0.120737D-02  0.132775D-02  0.197136D-02  0.175417D-02 -0.436109D-01
     26 -0.303060D-03  0.839945D-03  0.386380D-04  0.599691D-03  0.204065D-01
     27  0.830789D-03  0.181328D-02  0.756599D-03 -0.180448D-03  0.244478D-01
     28  0.105178D-03  0.343450D-03 -0.594573D-03  0.206260D-03 -0.206860D-02
     29 -0.129460D-03  0.256046D-03  0.146271D-03 -0.233224D-03 -0.211421D-01
     30 -0.205293D-03 -0.482444D-03 -0.327198D-03  0.282815D-03  0.394145D-01
     31 -0.589426D-01  0.747366D-02  0.182265D-02  0.603100D-02 -0.123468D-02
     32  0.479582D-01  0.905987D-03 -0.606205D-02  0.243844D-03 -0.104354D-02
     33 -0.300982D-01  0.576142D-02  0.869058D-03 -0.343027D-02 -0.125854D-02
               11            12            13            14            15 
     11  0.510652D+00
     12  0.140004D+00  0.473371D+00
     13 -0.955654D-01 -0.711740D-02  0.485383D+00
     14 -0.111338D+00 -0.154077D-01  0.355028D-01  0.570013D+00
     15 -0.363818D-01 -0.897706D-01 -0.210570D-01  0.458000D-01  0.606892D+00
     16  0.774184D-02 -0.123661D-01 -0.138776D+00  0.510027D-01 -0.808531D-02
     17  0.115184D-01 -0.749019D-02  0.496167D-01 -0.117650D+00  0.150108D-01
     18 -0.186441D-02  0.102312D-02 -0.106647D-01  0.158497D-01 -0.994050D-01
     19 -0.906677D-02  0.292041D-01 -0.573598D-01 -0.190841D-01  0.373059D-01
     20 -0.592093D-02  0.139525D-01 -0.235177D-01 -0.911425D-01  0.977331D-01
     21 -0.936496D-03  0.271376D-02  0.483145D-01  0.987307D-01 -0.254907D+00
     22 -0.280166D-01 -0.261354D-01 -0.511807D-01  0.180085D-01  0.171867D-01
     23 -0.125663D-01 -0.113339D-01  0.160527D-01 -0.188121D+00 -0.136366D+00
     24 -0.169488D-02 -0.318858D-02  0.115381D-01 -0.141612D+00 -0.177729D+00
     25  0.515645D-01  0.520084D-01 -0.390610D-02 -0.347212D-01 -0.246764D-01
     26 -0.316584D+00 -0.190313D+00  0.418387D-02 -0.178004D-01 -0.937377D-02
     27 -0.142288D+00 -0.134799D+00 -0.435127D-02 -0.585797D-02  0.126238D-02
     28  0.198568D-02 -0.356137D-02 -0.225795D-02 -0.860993D-03  0.197348D-02
     29  0.354579D-02  0.946874D-02 -0.287381D-02 -0.170570D-03  0.456813D-02
     30 -0.128082D-01 -0.208595D-01  0.130282D-02  0.982045D-03 -0.419571D-02
     31  0.477556D-03 -0.959582D-03 -0.662762D-03 -0.485012D-02 -0.257953D-02
     32  0.311903D-03 -0.110461D-05 -0.178165D-02 -0.104892D-03 -0.227315D-02
     33  0.531943D-03 -0.208756D-03 -0.268239D-02 -0.425377D-02  0.360313D-02
               16            17            18            19            20 
     16  0.562849D+00
     17 -0.417415D-01  0.102579D+01
     18  0.130233D+00  0.138004D+00  0.313242D+00
     19  0.962378D-02  0.882690D-02 -0.243205D-01  0.671043D-01
     20 -0.392391D-02 -0.119212D-01  0.228470D-01  0.260988D-01  0.988566D-01
     21  0.155033D-02  0.313983D-02 -0.684772D-02 -0.522219D-01 -0.109971D+00
     22  0.242577D-02  0.146903D-01  0.212423D-01 -0.637875D-03  0.484495D-02
     23  0.376112D-03 -0.168664D-01 -0.168727D-01 -0.674319D-03  0.118544D-01
     24 -0.146913D-02  0.590383D-02  0.653716D-02  0.197406D-02 -0.200537D-01
     25 -0.163323D-02 -0.536915D-02 -0.348746D-02  0.109045D-02  0.548368D-03
     26  0.135014D-02  0.120485D-02  0.335465D-03 -0.703374D-03 -0.631958D-03
     27  0.342733D-03 -0.197177D-02 -0.103183D-02 -0.667442D-03 -0.306466D-03
     28 -0.779026D-04  0.802390D-03  0.264985D-04  0.314949D-04 -0.237411D-03
     29  0.158921D-03 -0.967930D-03  0.124294D-03 -0.103754D-02 -0.752544D-03
     30  0.540716D-03  0.722188D-03 -0.533557D-03  0.663496D-03  0.315882D-03
     31 -0.421350D-01  0.286460D-01 -0.132166D-01 -0.243760D-03  0.506437D-03
     32 -0.131948D-01  0.233047D-01 -0.167739D-02 -0.254579D-03 -0.301734D-04
     33 -0.222824D-01  0.150988D-01 -0.168607D-02  0.831611D-03 -0.341311D-03
               21            22            23            24            25 
     21  0.273429D+00
     22  0.370564D-02  0.597854D-01
     23  0.974328D-02 -0.125626D-01  0.206656D+00
     24 -0.174659D-01 -0.108305D-01  0.150655D+00  0.189614D+00
     25  0.623525D-03 -0.565852D-02 -0.243724D-02 -0.273980D-03  0.563225D-01
     26 -0.156555D-04 -0.306774D-02 -0.705189D-03  0.148273D-02 -0.188505D-01
     27 -0.483400D-03  0.801033D-03  0.116142D-03  0.125155D-02 -0.390429D-01
     28 -0.113045D-03 -0.286035D-03 -0.560097D-04  0.404840D-03  0.669571D-03
     29  0.948443D-04 -0.255338D-03 -0.318424D-03 -0.130268D-03  0.135973D-02
     30  0.261080D-03 -0.255115D-03 -0.148111D-03  0.412283D-03  0.397883D-02
     31 -0.395815D-03  0.468607D-03 -0.253085D-03  0.312265D-03 -0.313223D-03
     32 -0.176819D-05 -0.234136D-03 -0.692602D-04 -0.296076D-04  0.661271D-04
     33  0.170678D-03  0.151087D-03  0.540534D-03  0.198860D-03 -0.543418D-05
               26            27            28            29            30 
     26  0.320262D+00
     27  0.171698D+00  0.176670D+00
     28 -0.787055D-03 -0.941692D-03  0.440428D+00
     29  0.497417D-04  0.327760D-03 -0.189839D+00  0.997572D-01
     30  0.166748D-02 -0.542235D-02 -0.946699D-01  0.166551D-01  0.724910D-01
     31  0.161941D-03 -0.135787D-03 -0.842662D-05 -0.583007D-04  0.335820D-05
     32  0.645164D-04  0.295761D-04  0.255722D-04  0.404134D-05  0.000000D+00
     33  0.110279D-03  0.596176D-04 -0.539862D-05 -0.260449D-04  0.698416D-04
               31            32            33 
     31  0.304813D+00
     32 -0.232617D+00  0.253082D+00
     33  0.696811D-01 -0.442665D-01  0.315819D-01
 FormGI is forming the generalized inverse of G from B-inverse, IUseBI=4.
 Leave Link  716 at Sat Mar  9 09:18:14 2019, MaxMem=   671088640 cpu:               0.6 elap:               0.1
 (Enter /shared/centos7/gaussian/g16/l103.exe)

 GradGradGradGradGradGradGradGradGradGradGradGradGradGradGradGradGradGrad
 Berny optimization.
 Red2BG is reusing G-inverse.
 Internal  Forces:  Max     0.000024387 RMS     0.000008218
 Search for a local minimum.
 Step number   1 out of a maximum of   51 on scan point     1 out of    73
 All quantities printed in internal units (Hartrees-Bohrs-Radians)
 RMS Force = .82512D-05 SwitMx=.10000D-02 MixMth= 2
 Mixed Optimization -- En-DIIS/RFO-DIIS
 Second derivative matrix not updated -- analytic derivatives used.
 ITU=  0
     Eigenvalues ---    0.00240   0.00628   0.00756   0.02148   0.04603
     Eigenvalues ---    0.05203   0.05249   0.08543   0.11715   0.13474
     Eigenvalues ---    0.14339   0.17839   0.18547   0.22736   0.24880
     Eigenvalues ---    0.28730   0.33651   0.33972   0.35071   0.37627
     Eigenvalues ---    0.42937   0.43175   0.44747   0.53062   0.54375
     Eigenvalues ---    0.935441000.000001000.000001000.000001000.00000
     Eigenvalues --- 1000.000001000.000001000.000001000.000001000.00000
     Eigenvalues --- 1000.000001000.000001000.000001000.000001000.00000
     Eigenvalues --- 1000.00000
 RFO step:  Lambda=-2.76022580D-08 EMin= 2.40228154D-03
 Linear search not attempted -- first point.
 Iteration  1 RMS(Cart)=  0.00018325 RMS(Int)=  0.00000003
 Iteration  2 RMS(Cart)=  0.00000003 RMS(Int)=  0.00000001
 Iteration  1 RMS(Cart)=  0.00000000 RMS(Int)=  0.00000000
 ITry= 1 IFail=0 DXMaxC= 5.63D-04 DCOld= 1.00D+10 DXMaxT= 3.00D-01 DXLimC= 3.00D+00 Rises=F
 Variable       Old X    -DE/DX   Delta X   Delta X   Delta X     New X
                                 (Linear)    (Quad)   (Total)
    R1        2.68758  -0.00000   0.00000  -0.00003  -0.00003   2.68755
    R2        1.81360  -0.00000   0.00000  -0.00000  -0.00000   1.81360
    R3        2.53478   0.00001   0.00000   0.00003   0.00003   2.53481
    R4        1.82594  -0.00000   0.00000   0.00000   0.00000   1.82595
    R5        2.26132  -0.00001   0.00000  -0.00002  -0.00002   2.26130
    R6        2.72933   0.00002   0.00000   0.00007   0.00007   2.72941
    R7        1.92244  -0.00000   0.00000  -0.00002  -0.00002   1.92242
    R8        2.86617   0.00000   0.00000   0.00003   0.00003   2.86620
    R9        2.06492  -0.00000   0.00000  -0.00002  -0.00002   2.06490
   R10        2.05483  -0.00001   0.00000  -0.00003  -0.00003   2.05479
    A1        1.80931  -0.00000   0.00000  -0.00001  -0.00001   1.80930
    A2        1.88059  -0.00000   0.00000  -0.00003  -0.00003   1.88056
    A3        1.86592  -0.00001   0.00000  -0.00002  -0.00002   1.86590
    A4        1.80867   0.00001   0.00000   0.00006   0.00006   1.80872
    A5        1.88181   0.00001   0.00000   0.00013   0.00013   1.88194
    A6        1.97230  -0.00002   0.00000  -0.00015  -0.00015   1.97215
    A7        1.89360   0.00002   0.00000   0.00013   0.00013   1.89373
    A8        1.91632  -0.00001   0.00000  -0.00013  -0.00013   1.91618
    A9        1.87372   0.00000   0.00000   0.00001   0.00001   1.87374
   A10        1.92235   0.00001   0.00000   0.00002   0.00002   1.92237
   A11        1.88279   0.00000   0.00000   0.00014   0.00014   1.88293
   A12        2.15610  -0.00000   0.00000  -0.00002  -0.00002   2.15608
   A13        1.95630  -0.00001   0.00000  -0.00002  -0.00002   1.95628
   A14        2.17003   0.00001   0.00000   0.00005   0.00005   2.17008
    D1       -2.18076   0.00001   0.00000   0.00051   0.00051  -2.18025
    D2        2.11702  -0.00000   0.00000   0.00035   0.00035   2.11737
    D3       -0.00705  -0.00000   0.00000   0.00003   0.00003  -0.00702
    D4        3.09445   0.00001   0.00000   0.00018   0.00018   3.09463
    D5       -1.13946  -0.00000   0.00000  -0.00025  -0.00025  -1.13971
    D6        3.06798  -0.00000   0.00000  -0.00026  -0.00026   3.06772
    D7        1.01421  -0.00001   0.00000  -0.00043  -0.00043   1.01378
    D8        0.79576   0.00000   0.00000  -0.00013  -0.00013   0.79562
    D9       -1.27998   0.00001   0.00000  -0.00015  -0.00015  -1.28013
   D10        2.94943  -0.00000   0.00000  -0.00032  -0.00032   2.94912
   D11       -2.24557  -0.00000   0.00000   0.00000   0.00000  -2.24557
   D12        2.75856  -0.00001   0.00000   0.00012   0.00012   2.75869
   D13       -0.42350  -0.00000   0.00000   0.00027   0.00027  -0.42323
   D14       -1.43740  -0.00001   0.00000   0.00020   0.00020  -1.43720
   D15        1.66372   0.00000   0.00000   0.00036   0.00036   1.66407
   D16        0.60823   0.00000   0.00000   0.00039   0.00039   0.60861
   D17       -2.57384   0.00001   0.00000   0.00054   0.00054  -2.57330
         Item               Value     Threshold  Converged?
 Maximum Force            0.000025     0.000450     YES
 RMS     Force            0.000008     0.000300     YES
 Maximum Displacement     0.000563     0.001800     YES
 RMS     Displacement     0.000183     0.001200     YES
 Predicted change in Energy=-1.380114D-08
 Optimization completed.
    -- Stationary point found.
                           ----------------------------
                           !   Optimized Parameters   !
                           ! (Angstroms and Degrees)  !
 --------------------------                            --------------------------
 ! Name  Definition              Value          Derivative Info.                !
 --------------------------------------------------------------------------------
 ! R1    R(1,4)                  1.4222         -DE/DX =    0.0                 !
 ! R2    R(1,10)                 0.9597         -DE/DX =    0.0                 !
 ! R3    R(2,6)                  1.3413         -DE/DX =    0.0                 !
 ! R4    R(2,11)                 0.9662         -DE/DX =    0.0                 !
 ! R5    R(3,6)                  1.1966         -DE/DX =    0.0                 !
 ! R6    R(4,5)                  1.4443         -DE/DX =    0.0                 !
 ! R7    R(4,9)                  1.0173         -DE/DX =    0.0                 !
 ! R8    R(5,6)                  1.5167         -DE/DX =    0.0                 !
 ! R9    R(5,7)                  1.0927         -DE/DX =    0.0                 !
 ! R10   R(5,8)                  1.0874         -DE/DX =    0.0                 !
 ! A1    A(4,1,10)             103.6658         -DE/DX =    0.0                 !
 ! A2    A(6,2,11)             107.7498         -DE/DX =    0.0                 !
 ! A3    A(1,4,5)              106.9095         -DE/DX =    0.0                 !
 ! A4    A(1,4,9)              103.629          -DE/DX =    0.0                 !
 ! A5    A(5,4,9)              107.8195         -DE/DX =    0.0                 !
 ! A6    A(4,5,6)              113.0042         -DE/DX =    0.0                 !
 ! A7    A(4,5,7)              108.4954         -DE/DX =    0.0                 !
 ! A8    A(4,5,8)              109.7968         -DE/DX =    0.0                 !
 ! A9    A(6,5,7)              107.3564         -DE/DX =    0.0                 !
 ! A10   A(6,5,8)              110.1425         -DE/DX =    0.0                 !
 ! A11   A(7,5,8)              107.8761         -DE/DX =    0.0                 !
 ! A12   A(2,6,3)              123.5356         -DE/DX =    0.0                 !
 ! A13   A(2,6,5)              112.0876         -DE/DX =    0.0                 !
 ! A14   A(3,6,5)              124.3338         -DE/DX =    0.0                 !
 ! D1    D(10,1,4,5)          -124.9485         -DE/DX =    0.0                 !
 ! D2    D(10,1,4,9)           121.2966         -DE/DX =    0.0                 !
 ! D3    D(11,2,6,3)            -0.4039         -DE/DX =    0.0                 !
 ! D4    D(11,2,6,5)           177.2989         -DE/DX =    0.0                 !
 ! D5    D(1,4,5,6)            -65.2864         -DE/DX =    0.0                 !
 ! D6    D(1,4,5,7)            175.7826         -DE/DX =    0.0                 !
 ! D7    D(1,4,5,8)             58.1101         -DE/DX =    0.0                 !
 ! D8    D(9,4,5,6)             45.5936         -DE/DX =    0.0                 !
 ! D9    D(9,4,5,7)            -73.3374         -DE/DX =    0.0                 !
 ! D10   D(9,4,5,8)            168.9901         -DE/DX =    0.0                 !
 ! D11   D(11,4,5,7)          -128.6614         -DE/DX =    0.0                 !
 ! D12   D(4,5,6,2)            158.0541         -DE/DX =    0.0                 !
 ! D13   D(4,5,6,3)            -24.2648         -DE/DX =    0.0                 !
 ! D14   D(7,5,6,2)            -82.3572         -DE/DX =    0.0                 !
 ! D15   D(7,5,6,3)             95.3239         -DE/DX =    0.0                 !
 ! D16   D(8,5,6,2)             34.8488         -DE/DX =    0.0                 !
 ! D17   D(8,5,6,3)           -147.4701         -DE/DX =    0.0                 !
 --------------------------------------------------------------------------------
 Lowest energy point so far.  Saving SCF results.
 Iteration  1 RMS(Cart)=  0.02629667 RMS(Int)=  0.01968825
 Iteration  2 RMS(Cart)=  0.00256034 RMS(Int)=  0.01967075
 Iteration  3 RMS(Cart)=  0.00013907 RMS(Int)=  0.01967068
 Iteration  4 RMS(Cart)=  0.00001197 RMS(Int)=  0.01967068
 Iteration  5 RMS(Cart)=  0.00000078 RMS(Int)=  0.01967068
 Iteration  1 RMS(Cart)=  0.01330236 RMS(Int)=  0.01040651
 Iteration  2 RMS(Cart)=  0.00693367 RMS(Int)=  0.01164441
 Iteration  3 RMS(Cart)=  0.00368250 RMS(Int)=  0.01311997
 Iteration  4 RMS(Cart)=  0.00197371 RMS(Int)=  0.01407433
 Iteration  5 RMS(Cart)=  0.00106278 RMS(Int)=  0.01462578
 Iteration  6 RMS(Cart)=  0.00057367 RMS(Int)=  0.01493306
 Iteration  7 RMS(Cart)=  0.00031006 RMS(Int)=  0.01510177
 Iteration  8 RMS(Cart)=  0.00016770 RMS(Int)=  0.01519376
 Iteration  9 RMS(Cart)=  0.00009073 RMS(Int)=  0.01524375
 Iteration 10 RMS(Cart)=  0.00004910 RMS(Int)=  0.01527086
 Iteration 11 RMS(Cart)=  0.00002658 RMS(Int)=  0.01528555
 Iteration 12 RMS(Cart)=  0.00001438 RMS(Int)=  0.01529350
 Iteration 13 RMS(Cart)=  0.00000779 RMS(Int)=  0.01529781
 Iteration 14 RMS(Cart)=  0.00000421 RMS(Int)=  0.01530015
 Iteration 15 RMS(Cart)=  0.00000228 RMS(Int)=  0.01530141
 Iteration 16 RMS(Cart)=  0.00000123 RMS(Int)=  0.01530209
 Iteration 17 RMS(Cart)=  0.00000067 RMS(Int)=  0.01530246
 GradGradGradGradGradGradGradGradGradGradGradGradGradGradGradGradGradGrad

 Leave Link  103 at Sat Mar  9 09:18:14 2019, MaxMem=   671088640 cpu:               1.2 elap:               0.1
 (Enter /shared/centos7/gaussian/g16/l202.exe)
                          Input orientation:                          
 ---------------------------------------------------------------------
 Center     Atomic      Atomic             Coordinates (Angstroms)
 Number     Number       Type             X           Y           Z
 ---------------------------------------------------------------------
      1          8           0        1.843760    0.301171   -0.765045
      2          8           0       -1.978110   -0.531042   -0.453587
      3          8           0       -0.864385    1.233389    0.303523
      4          7           0        1.492594   -0.181369    0.525916
      5          6           0        0.241091   -0.888478    0.383835
      6          6           0       -0.896430    0.063431    0.054244
      7          1           0       -0.040273   -1.288800    1.361121
      8          1           0        0.315569   -1.701883   -0.334005
      9          1           0        1.312432    0.666800    1.058199
     10          1           0        2.724977   -0.051785   -0.907053
     11          1           0       -2.653795    0.162951   -0.531848
 ---------------------------------------------------------------------
                    Distance matrix (angstroms):
                    1          2          3          4          5
     1  O    0.000000
     2  O    3.923809   0.000000
     3  O    3.056946   2.219643   0.000000
     4  N    1.422232   3.623187   2.757961   0.000000
     5  C    2.302985   2.398726   2.393919   1.444455   0.000000
     6  C    2.869912   1.334662   1.196649   2.447414   1.519445
     7  H    3.255484   2.760901   2.856416   2.067281   1.092937
     8  H    2.556050   2.578009   3.227160   2.106375   1.087414
     9  H    1.933963   3.814183   2.372570   1.017435   2.005351
    10  H    0.959838   4.749142   4.000086   1.894456   2.921667
    11  H    4.505717   0.971751   2.246257   4.293013   3.213151
                    6          7          8          9         10
     6  C    0.000000
     7  H    2.066267   0.000000
     8  H    2.176238   1.780650   0.000000
     9  H    2.500210   2.397070   2.922778   0.000000
    10  H    3.748594   3.784367   2.975980   2.524652   0.000000
    11  H    1.855193   3.538560   3.511961   4.302682   5.396117
                   11
    11  H    0.000000
 Stoichiometry    C2H5NO3
 Framework group  C1[X(C2H5NO3)]
 Deg. of freedom    27
 Full point group                 C1      NOp   1
 RotChk:  IX=0 Diff= 2.12D-02
 Largest Abelian subgroup         C1      NOp   1
 Largest concise Abelian subgroup C1      NOp   1
                         Standard orientation:                         
 ---------------------------------------------------------------------
 Center     Atomic      Atomic             Coordinates (Angstroms)
 Number     Number       Type             X           Y           Z
 ---------------------------------------------------------------------
      1          8           0        1.844735    0.303951   -0.747923
      2          8           0       -1.984675   -0.501101   -0.458468
      3          8           0       -0.859216    1.244896    0.323613
      4          7           0        1.485591   -0.191468    0.535946
      5          6           0        0.228902   -0.886655    0.381360
      6          6           0       -0.899873    0.078367    0.059936
      7          1           0       -0.058782   -1.296597    1.352801
      8          1           0        0.299123   -1.691808   -0.346148
      9          1           0        1.310561    0.651565    1.078011
     10          1           0        2.723533   -0.054353   -0.891521
     11          1           0       -2.654506    0.199231   -0.530314
 ---------------------------------------------------------------------
 Rotational constants (GHZ):           7.2913838           2.3966894           2.1766490
 Leave Link  202 at Sat Mar  9 09:18:14 2019, MaxMem=   671088640 cpu:               0.2 elap:               0.0
 (Enter /shared/centos7/gaussian/g16/l301.exe)
 Standard basis: 6-311+G(2df,2p) (5D, 7F)
 Ernie: Thresh=  0.10000D-02 Tol=  0.10000D-05 Strict=F.
 There are   279 symmetry adapted cartesian basis functions of A   symmetry.
 There are   249 symmetry adapted basis functions of A   symmetry.
   249 basis functions,   367 primitive gaussians,   279 cartesian basis functions
    24 alpha electrons       24 beta electrons
       nuclear repulsion energy       248.6852340494 Hartrees.
 IExCor= 4336 DFT=T Ex+Corr=M062X ExCW=0 ScaHFX=  0.540000
 ScaDFX=  1.000000  1.000000  1.000000  1.000000 ScalE2=  1.000000  1.000000
 IRadAn=      5 IRanWt=     -1 IRanGd=            0 ICorTp=0 IEmpDi=  4
 NAtoms=   11 NActive=   11 NUniq=   11 SFac= 1.00D+00 NAtFMM=   60 NAOKFM=F Big=F
 Integral buffers will be    131072 words long.
 Raffenetti 2 integral format.
 Two-electron integral symmetry is turned on.
 Leave Link  301 at Sat Mar  9 09:18:14 2019, MaxMem=   671088640 cpu:               1.3 elap:               0.1
 (Enter /shared/centos7/gaussian/g16/l302.exe)
 NPDir=0 NMtPBC=     1 NCelOv=     1 NCel=       1 NClECP=     1 NCelD=      1
         NCelK=      1 NCelE2=     1 NClLst=     1 CellRange=     0.0.
 One-electron integrals computed using PRISM.
 One-electron integral symmetry used in STVInt
 NBasis=   249 RedAO= T EigKep=  5.06D-05  NBF=   249
 NBsUse=   249 1.00D-06 EigRej= -1.00D+00 NBFU=   249
 Precomputing XC quadrature grid using
 IXCGrd= 4 IRadAn=           5 IRanWt=          -1 IRanGd=           0 AccXCQ= 0.00D+00.
 Generated NRdTot=       0 NPtTot=           0 NUsed=           0 NTot=          32
 NSgBfM=   279   279   279   279   279 MxSgAt=    11 MxSgA2=    11.
 Leave Link  302 at Sat Mar  9 09:18:15 2019, MaxMem=   671088640 cpu:               8.9 elap:               0.5
 (Enter /shared/centos7/gaussian/g16/l303.exe)
 DipDrv:  MaxL=1.
 Leave Link  303 at Sat Mar  9 09:18:15 2019, MaxMem=   671088640 cpu:               0.8 elap:               0.1
 (Enter /shared/centos7/gaussian/g16/l401.exe)
 Initial guess from the checkpoint file:  "/scratch/underkoffler.c/gaussian_scratch/Gau-4350.chk"
 B after Tr=     0.000000   -0.000000   -0.000000
         Rot=    0.999970   -0.006340    0.001301    0.004339 Ang=  -0.89 deg.
 Guess basis will be translated and rotated to current coordinates.
 JPrj=2 DoOrth=T DoCkMO=T.
 Generating alternative initial guess.
 ExpMin= 4.38D-02 ExpMax= 8.59D+03 ExpMxC= 1.30D+03 IAcc=2 IRadAn=         4 AccDes= 0.00D+00
 Harris functional with IExCor= 1009 and IRadAn=       4 diagonalized for initial guess.
 HarFok:  IExCor= 1009 AccDes= 0.00D+00 IRadAn=         4 IDoV= 1 UseB2=F ITyADJ=14
 ICtDFT=  3500011 ScaDFX=  1.000000  1.000000  1.000000  1.000000
 FoFCou: FMM=F IPFlag=           0 FMFlag=      100000 FMFlg1=           0
         NFxFlg=           0 DoJE=T BraDBF=F KetDBF=T FulRan=T
         wScrn=  0.000000 ICntrl=       500 IOpCl=  0 I1Cent=   200000004 NGrid=           0
         NMat0=    1 NMatS0=      1 NMatT0=    0 NMatD0=    1 NMtDS0=    0 NMtDT0=    0
 Petite list used in FoFCou.
 Harris En= -359.412525959020    
 Leave Link  401 at Sat Mar  9 09:18:16 2019, MaxMem=   671088640 cpu:              17.9 elap:               0.9
 (Enter /shared/centos7/gaussian/g16/l502.exe)
 Keep R1 ints in memory in canonical form, NReq=506568544.
 FoFCou: FMM=F IPFlag=           0 FMFlag=           0 FMFlg1=           0
         NFxFlg=           0 DoJE=F BraDBF=F KetDBF=F FulRan=T
         wScrn=  0.000000 ICntrl=       600 IOpCl=  0 I1Cent=           0 NGrid=           0
         NMat0=    1 NMatS0=  31125 NMatT0=    0 NMatD0=    1 NMtDS0=    0 NMtDT0=    0
 Symmetry not used in FoFCou.
 Two-electron integral symmetry not used.
 Closed shell SCF:
 Using DIIS extrapolation, IDIIS=  1040.
 NGot=   671088640 LenX=   186526494 LenY=   186448212
 Requested convergence on RMS density matrix=1.00D-08 within 128 cycles.
 Requested convergence on MAX density matrix=1.00D-06.
 Requested convergence on             energy=1.00D-06.
 No special actions if energy rises.

 Cycle   1  Pass 1  IDiag  1:
 E= -359.588640297712    
 DIIS: error= 1.84D-03 at cycle   1 NSaved=   1.
 NSaved= 1 IEnMin= 1 EnMin= -359.588640297712     IErMin= 1 ErrMin= 1.84D-03
 ErrMax= 1.84D-03  0.00D+00 EMaxC= 1.00D-01 BMatC= 3.29D-03 BMatP= 3.29D-03
 IDIUse=3 WtCom= 9.82D-01 WtEn= 1.84D-02
 Coeff-Com:  0.100D+01
 Coeff-En:   0.100D+01
 Coeff:      0.100D+01
 Gap=     0.638 Goal=   None    Shift=    0.000
 GapD=    0.638 DampG=2.000 DampE=1.000 DampFc=2.0000 IDamp=-1.
 RMSDP=5.18D-04 MaxDP=2.92D-02              OVMax= 1.33D-02

 Cycle   2  Pass 1  IDiag  1:
 E= -359.592597452531     Delta-E=       -0.003957154819 Rises=F Damp=F
 DIIS: error= 3.74D-04 at cycle   2 NSaved=   2.
 NSaved= 2 IEnMin= 2 EnMin= -359.592597452531     IErMin= 2 ErrMin= 3.74D-04
 ErrMax= 3.74D-04  0.00D+00 EMaxC= 1.00D-01 BMatC= 9.43D-05 BMatP= 3.29D-03
 IDIUse=3 WtCom= 9.96D-01 WtEn= 3.74D-03
 Coeff-Com: -0.122D+00 0.112D+01
 Coeff-En:   0.000D+00 0.100D+01
 Coeff:     -0.122D+00 0.112D+01
 Gap=     0.335 Goal=   None    Shift=    0.000
 RMSDP=8.87D-05 MaxDP=4.75D-03 DE=-3.96D-03 OVMax= 4.58D-03

 Cycle   3  Pass 1  IDiag  1:
 E= -359.592780002544     Delta-E=       -0.000182550013 Rises=F Damp=F
 DIIS: error= 1.70D-04 at cycle   3 NSaved=   3.
 NSaved= 3 IEnMin= 3 EnMin= -359.592780002544     IErMin= 3 ErrMin= 1.70D-04
 ErrMax= 1.70D-04  0.00D+00 EMaxC= 1.00D-01 BMatC= 2.24D-05 BMatP= 9.43D-05
 IDIUse=3 WtCom= 9.98D-01 WtEn= 1.70D-03
 Coeff-Com: -0.573D-01 0.382D+00 0.675D+00
 Coeff-En:   0.000D+00 0.000D+00 0.100D+01
 Coeff:     -0.572D-01 0.381D+00 0.676D+00
 Gap=     0.335 Goal=   None    Shift=    0.000
 RMSDP=1.67D-05 MaxDP=7.91D-04 DE=-1.83D-04 OVMax= 1.16D-03

 Cycle   4  Pass 1  IDiag  1:
 E= -359.592796491866     Delta-E=       -0.000016489322 Rises=F Damp=F
 DIIS: error= 1.16D-04 at cycle   4 NSaved=   4.
 NSaved= 4 IEnMin= 4 EnMin= -359.592796491866     IErMin= 4 ErrMin= 1.16D-04
 ErrMax= 1.16D-04  0.00D+00 EMaxC= 1.00D-01 BMatC= 5.24D-06 BMatP= 2.24D-05
 IDIUse=3 WtCom= 9.99D-01 WtEn= 1.16D-03
 Coeff-Com: -0.112D-02-0.535D-01 0.304D+00 0.751D+00
 Coeff-En:   0.000D+00 0.000D+00 0.000D+00 0.100D+01
 Coeff:     -0.112D-02-0.535D-01 0.303D+00 0.751D+00
 Gap=     0.335 Goal=   None    Shift=    0.000
 RMSDP=8.57D-06 MaxDP=2.84D-04 DE=-1.65D-05 OVMax= 9.34D-04

 Cycle   5  Pass 1  IDiag  1:
 E= -359.592801547812     Delta-E=       -0.000005055946 Rises=F Damp=F
 DIIS: error= 3.45D-05 at cycle   5 NSaved=   5.
 NSaved= 5 IEnMin= 5 EnMin= -359.592801547812     IErMin= 5 ErrMin= 3.45D-05
 ErrMax= 3.45D-05  0.00D+00 EMaxC= 1.00D-01 BMatC= 4.47D-07 BMatP= 5.24D-06
 IDIUse=1 WtCom= 1.00D+00 WtEn= 0.00D+00
 Coeff-Com:  0.394D-02-0.495D-01 0.519D-01 0.283D+00 0.711D+00
 Coeff:      0.394D-02-0.495D-01 0.519D-01 0.283D+00 0.711D+00
 Gap=     0.335 Goal=   None    Shift=    0.000
 RMSDP=3.31D-06 MaxDP=1.01D-04 DE=-5.06D-06 OVMax= 4.11D-04

 Cycle   6  Pass 1  IDiag  1:
 E= -359.592802063692     Delta-E=       -0.000000515880 Rises=F Damp=F
 DIIS: error= 1.80D-05 at cycle   6 NSaved=   6.
 NSaved= 6 IEnMin= 6 EnMin= -359.592802063692     IErMin= 6 ErrMin= 1.80D-05
 ErrMax= 1.80D-05  0.00D+00 EMaxC= 1.00D-01 BMatC= 1.33D-07 BMatP= 4.47D-07
 IDIUse=1 WtCom= 1.00D+00 WtEn= 0.00D+00
 Coeff-Com:  0.240D-02-0.182D-01-0.243D-01 0.281D-01 0.375D+00 0.637D+00
 Coeff:      0.240D-02-0.182D-01-0.243D-01 0.281D-01 0.375D+00 0.637D+00
 Gap=     0.335 Goal=   None    Shift=    0.000
 RMSDP=1.46D-06 MaxDP=4.40D-05 DE=-5.16D-07 OVMax= 2.17D-04

 Cycle   7  Pass 1  IDiag  1:
 E= -359.592802222482     Delta-E=       -0.000000158789 Rises=F Damp=F
 DIIS: error= 5.30D-06 at cycle   7 NSaved=   7.
 NSaved= 7 IEnMin= 7 EnMin= -359.592802222482     IErMin= 7 ErrMin= 5.30D-06
 ErrMax= 5.30D-06  0.00D+00 EMaxC= 1.00D-01 BMatC= 1.33D-08 BMatP= 1.33D-07
 IDIUse=1 WtCom= 1.00D+00 WtEn= 0.00D+00
 Coeff-Com: -0.291D-03 0.723D-02-0.211D-01-0.617D-01-0.595D-01 0.178D+00
 Coeff-Com:  0.957D+00
 Coeff:     -0.291D-03 0.723D-02-0.211D-01-0.617D-01-0.595D-01 0.178D+00
 Coeff:      0.957D+00
 Gap=     0.335 Goal=   None    Shift=    0.000
 RMSDP=8.68D-07 MaxDP=2.93D-05 DE=-1.59D-07 OVMax= 1.62D-04

 Cycle   8  Pass 1  IDiag  1:
 E= -359.592802254462     Delta-E=       -0.000000031981 Rises=F Damp=F
 DIIS: error= 1.88D-06 at cycle   8 NSaved=   8.
 NSaved= 8 IEnMin= 8 EnMin= -359.592802254462     IErMin= 8 ErrMin= 1.88D-06
 ErrMax= 1.88D-06  0.00D+00 EMaxC= 1.00D-01 BMatC= 1.61D-09 BMatP= 1.33D-08
 IDIUse=1 WtCom= 1.00D+00 WtEn= 0.00D+00
 Coeff-Com: -0.379D-03 0.461D-02-0.365D-02-0.241D-01-0.652D-01-0.251D-01
 Coeff-Com:  0.325D+00 0.789D+00
 Coeff:     -0.379D-03 0.461D-02-0.365D-02-0.241D-01-0.652D-01-0.251D-01
 Coeff:      0.325D+00 0.789D+00
 Gap=     0.335 Goal=   None    Shift=    0.000
 RMSDP=2.51D-07 MaxDP=8.17D-06 DE=-3.20D-08 OVMax= 4.58D-05

 Cycle   9  Pass 1  IDiag  1:
 E= -359.592802257347     Delta-E=       -0.000000002885 Rises=F Damp=F
 DIIS: error= 5.62D-07 at cycle   9 NSaved=   9.
 NSaved= 9 IEnMin= 9 EnMin= -359.592802257347     IErMin= 9 ErrMin= 5.62D-07
 ErrMax= 5.62D-07  0.00D+00 EMaxC= 1.00D-01 BMatC= 1.54D-10 BMatP= 1.61D-09
 IDIUse=1 WtCom= 1.00D+00 WtEn= 0.00D+00
 Coeff-Com: -0.706D-04 0.482D-03 0.138D-02-0.738D-05-0.110D-01-0.278D-01
 Coeff-Com: -0.100D-01 0.224D+00 0.823D+00
[...]
   D15        2.13848  -0.00134   0.00000  -0.00406  -0.00007   2.13841
   D16        0.97233  -0.00087   0.00000  -0.00263  -0.00004   0.97228
   D17       -2.17639  -0.00109   0.00000  -0.00330  -0.00005  -2.17644
         Item               Value     Threshold  Converged?
 Maximum Force            0.016490     0.000450     NO 
 RMS     Force            0.002713     0.000300     NO 
 Maximum Displacement     0.000783     0.001800     YES
 RMS     Displacement     0.000141     0.001200     YES
 Predicted change in Energy=-2.567832D-04
 GradGradGradGradGradGradGradGradGradGradGradGradGradGradGradGradGradGrad

 Leave Link  103 at Sat Mar  9 10:12:01 2019, MaxMem=   671088640 cpu:              62.6 elap:               5.9
 (Enter /shared/centos7/gaussian/g16/l202.exe)
                          Input orientation:                          
 ---------------------------------------------------------------------
 Center     Atomic      Atomic             Coordinates (Angstroms)
 Number     Number       Type             X           Y           Z
 ---------------------------------------------------------------------
      1          8           0        2.011359    0.194608   -0.702597
      2          8           0       -2.186106   -0.154973   -0.198154
      3          8           0       -0.848847    1.607913   -0.002638
      4          7           0        1.457218   -0.276332    0.518058
      5          6           0        0.075329   -0.601285    0.281135
      6          6           0       -0.985350    0.436524    0.017606
      7          1           0       -0.268509   -1.189977    1.139338
      8          1           0        0.065875   -1.284501   -0.572645
      9          1           0        1.506893    0.529026    1.138085
     10          1           0        2.784745   -0.360233   -0.828465
     11          1           0       -2.115176   -1.116385   -0.094424
 ---------------------------------------------------------------------
                    Distance matrix (angstroms):
                    1          2          3          4          5
     1  O    0.000000
     2  O    4.242097   0.000000
     3  O    3.266214   2.221319   0.000000
     4  N    1.420865   3.715037   3.023151   0.000000
     5  C    2.312874   2.354358   2.411469   1.439216   0.000000
     6  C    3.091518   1.355816   1.179490   2.593214   1.507162
     7  H    3.241543   2.556813   3.077189   2.049115   1.096036
     8  H    2.447358   2.547056   3.086695   2.035160   1.093533
     9  H    1.937636   3.986430   2.831034   1.017596   2.015276
    10  H    0.960113   5.014856   4.214092   1.892746   2.937728
    11  H    4.372285   0.969589   3.005631   3.720595   2.281379
                    6          7          8          9         10
     6  C    0.000000
     7  H    2.101821   0.000000
     8  H    2.101285   1.746893   0.000000
     9  H    2.734100   2.471239   2.879585   0.000000
    10  H    3.945158   3.726001   2.883048   2.508187   0.000000
    11  H    1.923690   2.222108   2.239184   4.164833   5.011966
                   11
    11  H    0.000000
 Stoichiometry    C2H5NO3
 Framework group  C1[X(C2H5NO3)]
 Deg. of freedom    27
 Full point group                 C1      NOp   1
 RotChk:  IX=0 Diff= 1.62D-04
 Largest Abelian subgroup         C1      NOp   1
 Largest concise Abelian subgroup C1      NOp   1
                         Standard orientation:                         
 ---------------------------------------------------------------------
 Center     Atomic      Atomic             Coordinates (Angstroms)
 Number     Number       Type             X           Y           Z
 ---------------------------------------------------------------------
      1          8           0        2.046990    0.334020   -0.578899
      2          8           0       -2.110665   -0.463721   -0.308914
      3          8           0       -0.955236    1.367443    0.187148
      4          7           0        1.504557   -0.354401    0.539448
      5          6           0        0.167909   -0.766463    0.200446
      6          6           0       -0.979193    0.197613    0.038425
      7          1           0       -0.143201   -1.500198    0.952869
      8          1           0        0.249491   -1.319073   -0.739651
      9          1           0        1.458219    0.355551    1.266993
     10          1           0        2.873470   -0.124653   -0.747324
     11          1           0       -1.950882   -1.419644   -0.336923
 ---------------------------------------------------------------------
 Rotational constants (GHZ):           7.6376709           2.2307592           1.9350294
 Leave Link  202 at Sat Mar  9 10:12:01 2019, MaxMem=   671088640 cpu:               0.2 elap:               0.0
 (Enter /shared/centos7/gaussian/g16/l301.exe)
 Standard basis: 6-311+G(2df,2p) (5D, 7F)
 Ernie: Thresh=  0.10000D-02 Tol=  0.10000D-05 Strict=F.
 There are   279 symmetry adapted cartesian basis functions of A   symmetry.
 There are   249 symmetry adapted basis functions of A   symmetry.
   249 basis functions,   367 primitive gaussians,   279 cartesian basis functions
    24 alpha electrons       24 beta electrons
       nuclear repulsion energy       245.1734972226 Hartrees.
 IExCor= 4336 DFT=T Ex+Corr=M062X ExCW=0 ScaHFX=  0.540000
 ScaDFX=  1.000000  1.000000  1.000000  1.000000 ScalE2=  1.000000  1.000000
 IRadAn=      5 IRanWt=     -1 IRanGd=            0 ICorTp=0 IEmpDi=  4
 NAtoms=   11 NActive=   11 NUniq=   11 SFac= 1.00D+00 NAtFMM=   60 NAOKFM=F Big=F
 Integral buffers will be    131072 words long.
 Raffenetti 2 integral format.
 Two-electron integral symmetry is turned on.
 Leave Link  301 at Sat Mar  9 10:12:01 2019, MaxMem=   671088640 cpu:               1.2 elap:               0.1
 (Enter /shared/centos7/gaussian/g16/l302.exe)
 NPDir=0 NMtPBC=     1 NCelOv=     1 NCel=       1 NClECP=     1 NCelD=      1
         NCelK=      1 NCelE2=     1 NClLst=     1 CellRange=     0.0.
 One-electron integrals computed using PRISM.
 One-electron integral symmetry used in STVInt
 NBasis=   249 RedAO= T EigKep=  4.51D-05  NBF=   249
 NBsUse=   249 1.00D-06 EigRej= -1.00D+00 NBFU=   249
 Precomputing XC quadrature grid using
 IXCGrd= 4 IRadAn=           5 IRanWt=          -1 IRanGd=           0 AccXCQ= 0.00D+00.
 Generated NRdTot=       0 NPtTot=           0 NUsed=           0 NTot=          32
 NSgBfM=   279   279   279   279   279 MxSgAt=    11 MxSgA2=    11.
 Leave Link  302 at Sat Mar  9 10:12:02 2019, MaxMem=   671088640 cpu:               8.7 elap:               0.5
 (Enter /shared/centos7/gaussian/g16/l303.exe)
 DipDrv:  MaxL=1.
 Leave Link  303 at Sat Mar  9 10:12:02 2019, MaxMem=   671088640 cpu:               0.6 elap:               0.1
 (Enter /shared/centos7/gaussian/g16/l401.exe)
 Initial guess from the checkpoint file:  "/scratch/underkoffler.c/gaussian_scratch/Gau-4350.chk"
 B after Tr=     0.000000    0.000000    0.000000
         Rot=    1.000000    0.000054   -0.000001   -0.000006 Ang=   0.01 deg.
 Guess basis will be translated and rotated to current coordinates.
 JPrj=2 DoOrth=T DoCkMO=T.
 Leave Link  401 at Sat Mar  9 10:12:02 2019, MaxMem=   671088640 cpu:               4.2 elap:               0.2
 (Enter /shared/centos7/gaussian/g16/l502.exe)
 Keep R1 ints in memory in canonical form, NReq=506568544.
 FoFCou: FMM=F IPFlag=           0 FMFlag=           0 FMFlg1=           0
         NFxFlg=           0 DoJE=F BraDBF=F KetDBF=F FulRan=T
         wScrn=  0.000000 ICntrl=       600 IOpCl=  0 I1Cent=           0 NGrid=           0
         NMat0=    1 NMatS0=  31125 NMatT0=    0 NMatD0=    1 NMtDS0=    0 NMtDT0=    0
 Symmetry not used in FoFCou.
 Two-electron integral symmetry not used.
 Closed shell SCF:
 Using DIIS extrapolation, IDIIS=  1040.
 NGot=   671088640 LenX=   186526494 LenY=   186448212
 Requested convergence on RMS density matrix=1.00D-08 within 128 cycles.
 Requested convergence on MAX density matrix=1.00D-06.
 Requested convergence on             energy=1.00D-06.
 No special actions if energy rises.

 Cycle   1  Pass 1  IDiag  1:
 E= -359.579689280718    
 DIIS: error= 2.17D-05 at cycle   1 NSaved=   1.
 NSaved= 1 IEnMin= 1 EnMin= -359.579689280718     IErMin= 1 ErrMin= 2.17D-05
 ErrMax= 2.17D-05  0.00D+00 EMaxC= 1.00D-01 BMatC= 1.94D-07 BMatP= 1.94D-07
 IDIUse=1 WtCom= 1.00D+00 WtEn= 0.00D+00
 Coeff-Com:  0.100D+01
 Coeff:      0.100D+01
 Gap=     0.605 Goal=   None    Shift=    0.000
 RMSDP=2.51D-06 MaxDP=7.81D-05              OVMax= 9.62D-05

 Cycle   2  Pass 1  IDiag  1:
 E= -359.579689410464     Delta-E=       -0.000000129745 Rises=F Damp=F
 DIIS: error= 5.44D-06 at cycle   2 NSaved=   2.
 NSaved= 2 IEnMin= 2 EnMin= -359.579689410464     IErMin= 2 ErrMin= 5.44D-06
 ErrMax= 5.44D-06  0.00D+00 EMaxC= 1.00D-01 BMatC= 2.19D-08 BMatP= 1.94D-07
 IDIUse=1 WtCom= 1.00D+00 WtEn= 0.00D+00
 Coeff-Com:  0.167D+00 0.833D+00
 Coeff:      0.167D+00 0.833D+00
 Gap=     0.327 Goal=   None    Shift=    0.000
 RMSDP=6.23D-07 MaxDP=4.20D-05 DE=-1.30D-07 OVMax= 4.74D-05

 Cycle   3  Pass 1  IDiag  1:
 E= -359.579689420400     Delta-E=       -0.000000009936 Rises=F Damp=F
 DIIS: error= 5.42D-06 at cycle   3 NSaved=   3.
 NSaved= 3 IEnMin= 3 EnMin= -359.579689420400     IErMin= 3 ErrMin= 5.42D-06
 ErrMax= 5.42D-06  0.00D+00 EMaxC= 1.00D-01 BMatC= 7.90D-09 BMatP= 2.19D-08
 IDIUse=1 WtCom= 1.00D+00 WtEn= 0.00D+00
 Coeff-Com: -0.735D-02 0.354D+00 0.653D+00
 Coeff:     -0.735D-02 0.354D+00 0.653D+00
 Gap=     0.327 Goal=   None    Shift=    0.000
 RMSDP=2.92D-07 MaxDP=1.25D-05 DE=-9.94D-09 OVMax= 3.26D-05

 Cycle   4  Pass 1  IDiag  1:
 E= -359.579689425336     Delta-E=       -0.000000004936 Rises=F Damp=F
 DIIS: error= 2.35D-06 at cycle   4 NSaved=   4.
 NSaved= 4 IEnMin= 4 EnMin= -359.579689425336     IErMin= 4 ErrMin= 2.35D-06
 ErrMax= 2.35D-06  0.00D+00 EMaxC= 1.00D-01 BMatC= 1.37D-09 BMatP= 7.90D-09
 IDIUse=1 WtCom= 1.00D+00 WtEn= 0.00D+00
 Coeff-Com: -0.162D-01 0.838D-01 0.340D+00 0.592D+00
 Coeff:     -0.162D-01 0.838D-01 0.340D+00 0.592D+00
 Gap=     0.327 Goal=   None    Shift=    0.000
 RMSDP=9.86D-08 MaxDP=4.63D-06 DE=-4.94D-09 OVMax= 1.30D-05

 Cycle   5  Pass 1  IDiag  1:
 E= -359.579689426283     Delta-E=       -0.000000000947 Rises=F Damp=F
 DIIS: error= 4.56D-07 at cycle   5 NSaved=   5.
 NSaved= 5 IEnMin= 5 EnMin= -359.579689426283     IErMin= 5 ErrMin= 4.56D-07
 ErrMax= 4.56D-07  0.00D+00 EMaxC= 1.00D-01 BMatC= 9.14D-11 BMatP= 1.37D-09
 IDIUse=1 WtCom= 1.00D+00 WtEn= 0.00D+00
 Coeff-Com: -0.429D-02-0.155D-01 0.533D-01 0.246D+00 0.720D+00
 Coeff:     -0.429D-02-0.155D-01 0.533D-01 0.246D+00 0.720D+00
 Gap=     0.327 Goal=   None    Shift=    0.000
 RMSDP=3.31D-08 MaxDP=2.21D-06 DE=-9.47D-10 OVMax= 1.80D-06

 Cycle   6  Pass 1  IDiag  1:
 E= -359.579689426356     Delta-E=       -0.000000000073 Rises=F Damp=F
 DIIS: error= 8.19D-08 at cycle   6 NSaved=   6.
 NSaved= 6 IEnMin= 6 EnMin= -359.579689426356     IErMin= 6 ErrMin= 8.19D-08
 ErrMax= 8.19D-08  0.00D+00 EMaxC= 1.00D-01 BMatC= 3.33D-12 BMatP= 9.14D-11
 IDIUse=1 WtCom= 1.00D+00 WtEn= 0.00D+00
 Coeff-Com: -0.184D-03-0.113D-01-0.102D-01 0.382D-01 0.194D+00 0.790D+00
 Coeff:     -0.184D-03-0.113D-01-0.102D-01 0.382D-01 0.194D+00 0.790D+00
 Gap=     0.327 Goal=   None    Shift=    0.000
 RMSDP=8.75D-09 MaxDP=2.54D-07 DE=-7.32D-11 OVMax= 4.10D-07

 SCF Done:  E(RM062X) =  -359.579689426     A.U. after    6 cycles
            NFock=  6  Conv=0.87D-08     -V/T= 2.0030
 KE= 3.585087262593D+02 PE=-1.335735246242D+03 EE= 3.724733333338D+02
 Leave Link  502 at Sat Mar  9 10:12:18 2019, MaxMem=   671088640 cpu:             235.5 elap:              16.2
 (Enter /shared/centos7/gaussian/g16/l701.exe)
 ... and contract with generalized density number  0.
 Compute integral first derivatives.
 Leave Link  701 at Sat Mar  9 10:12:18 2019, MaxMem=   671088640 cpu:               6.9 elap:               0.4
 (Enter /shared/centos7/gaussian/g16/l702.exe)
 L702 exits ... SP integral derivatives will be done elsewhere.
 Leave Link  702 at Sat Mar  9 10:12:19 2019, MaxMem=   671088640 cpu:               0.4 elap:               0.0
 (Enter /shared/centos7/gaussian/g16/l703.exe)
 Integral derivatives from FoFJK, PRISM(SPDF).
 Compute integral first derivatives, UseDBF=F ICtDFT=           0.
 Calling FoFJK, ICntrl=      2127 FMM=F ISym2X=0 I1Cent= 0 IOpClX= 0 NMat=1 NMatS=1 NMatT=0.
 FoFJK:  IHMeth= 1 ICntrl=    2127 DoSepK=F KAlg= 0 I1Cent=           0 FoldK=F
 IRaf=         0 NMat=       1 IRICut=       1 DoRegI=T DoRafI=F ISym2E= 0 IDoP0=0 IntGTp=1.
 FoFCou: FMM=F IPFlag=           0 FMFlag=      100000 FMFlg1=         800
         NFxFlg=           0 DoJE=F BraDBF=F KetDBF=F FulRan=T
         wScrn=  0.000000 ICntrl=      2127 IOpCl=  0 I1Cent=           0 NGrid=           0
         NMat0=    1 NMatS0=      1 NMatT0=    0 NMatD0=    1 NMtDS0=    0 NMtDT0=    0
 Symmetry not used in FoFCou.
 Leave Link  703 at Sat Mar  9 10:12:27 2019, MaxMem=   671088640 cpu:             163.3 elap:               8.2
 (Enter /shared/centos7/gaussian/g16/l716.exe)
 Dipole        = 5.53485096D-01-1.65984900D+00 1.57401215D-01
 ***** Axes restored to original set *****
 -------------------------------------------------------------------
 Center     Atomic                   Forces (Hartrees/Bohr)
 Number     Number              X              Y              Z
 -------------------------------------------------------------------
      1        8           0.000050411    0.000014108   -0.000077588
      2        8          -0.002005730   -0.001671501    0.000839572
      3        8           0.001787497    0.015548231    0.000923764
      4        7          -0.002848842    0.013071378   -0.000791138
      5        6           0.004650680   -0.022584644    0.001234691
      6        6           0.000033144   -0.012844418   -0.001246962
      7        1           0.000645087    0.000741645    0.000777126
      8        1          -0.000599498   -0.000595813    0.000476668
      9        1          -0.000010749    0.000103544   -0.000079410
     10        1          -0.000010850    0.000016984   -0.000000099
     11        1          -0.001691150    0.008200486   -0.002056622
 -------------------------------------------------------------------
 Cartesian Forces:  Max     0.022584644 RMS     0.006054176
 Leave Link  716 at Sat Mar  9 10:12:27 2019, MaxMem=   671088640 cpu:               0.4 elap:               0.0
 (Enter /shared/centos7/gaussian/g16/l103.exe)

 GradGradGradGradGradGradGradGradGradGradGradGradGradGradGradGradGradGrad
 Berny optimization.
 Using GEDIIS/GDIIS optimizer.
 FormGI is forming the generalized inverse of G from B-inverse, IUseBI=4.
 Internal  Forces:  Max     0.015633088 RMS     0.002538453
 Search for a local minimum.
 Step number  28 out of a maximum of   51 on scan point    11 out of    73
 All quantities printed in internal units (Hartrees-Bohrs-Radians)
 RMS Force = .25700D-02 SwitMx=.10000D-02 MixMth= 1
 Mixed Optimization -- RFO/linear search
 Update second derivatives using D2CorX and points    1    3    4    5    6
                                                      8    9   10   11   12
                                                     13   14   15   16   17
                                                     18   19   20   21   22
                                                     23   24   25   26   27
                                                     28    2
 ITU=  0  0  0  0  0  0  0  0  0  0  0  0  0  0  0  0  0  0  0  0
 ITU= -1  0  1  1  1 -1 -1  0
 Use linear search instead of GDIIS.
 Skip linear search -- no minimum in search direction.
 Steepest descent instead of Quadratic search.
 Steepest descent step scaled to max of 0.05000.
 SLEqS3 Cycle:   331 Max:0.704855E-02 RMS:0.196118E-02 Conv:0.497303E-07
 SLEqS3 Cycle:   331 Max:0.704855E-02 RMS:0.196118E-02 Conv:0.497303E-07
 Iteration  1 RMS(Cart)=  0.00726027 RMS(Int)=  0.00145525
 SLEqS3 Cycle:    15 Max:0.761894E-02 RMS: 249.219     Conv:0.112877E-02
 Iteration  2 RMS(Cart)=  0.00098362 RMS(Int)=  0.00117832
 SLEqS3 Cycle:    29 Max:0.749846E-02 RMS:0.163029E-02 Conv:0.572411E-05
 Iteration  3 RMS(Cart)=  0.00008660 RMS(Int)=  0.00117558
 SLEqS3 Cycle:   331 Max:0.109762E-02 RMS:0.255939E-03 Conv:0.122899E-05
 SLEqS3 Cycle:   331 Max:0.109421E-02 RMS:0.255672E-03 Conv:0.122899E-05
 New curvilinear step failed, DQL= 3.14D+00 SP=-7.60D-03.
 ITry= 1 IFail=1 DXMaxC= 4.74D-02 DCOld= 1.00D+10 DXMaxT= 1.38D-01 DXLimC= 3.00D+00 Rises=T
 SLEqS3 Cycle:   331 Max:0.634369E-02 RMS:0.176507E-02 Conv:0.447573E-07
 SLEqS3 Cycle:   331 Max:0.634369E-02 RMS:0.176507E-02 Conv:0.447573E-07
 Iteration  1 RMS(Cart)=  0.00653424 RMS(Int)=  0.00130976
 SLEqS3 Cycle:    15 Max:0.685258E-02 RMS: 232.881     Conv:0.105479E-02
 Iteration  2 RMS(Cart)=  0.00087544 RMS(Int)=  0.00106009
 SLEqS3 Cycle:   331 Max:0.390720E-03 RMS:0.853766E-04 Conv:0.344392E-04
 SLEqS3 Cycle:   331 Max:0.975718E-03 RMS:0.230196E-03 Conv:0.344392E-04
 Iteration  3 RMS(Cart)=  0.00000001 RMS(Int)=  0.00106009
 Iteration  1 RMS(Cart)=  0.00002396 RMS(Int)=  0.48801343
 Iteration  2 RMS(Cart)=  0.00000390 RMS(Int)=  0.45806419
 Iteration  3 RMS(Cart)=  0.00000115 RMS(Int)=  0.45393958
 Iteration  4 RMS(Cart)=  0.00000114 RMS(Int)=  0.44923634
 Iteration  5 RMS(Cart)=  0.00020672 RMS(Int)=  0.44343244
 Iteration  6 RMS(Cart)=  0.00019741 RMS(Int)=  0.43639331
 Iteration  7 RMS(Cart)=  0.00015397 RMS(Int)=  0.42796350
 Iteration  8 RMS(Cart)=  0.00005945 RMS(Int)=  0.41821447
 Iteration  9 RMS(Cart)=  0.00008233 RMS(Int)=  0.40750873
 Iteration 10 RMS(Cart)=  0.00024052 RMS(Int)=  0.39642161
 Iteration 11 RMS(Cart)=  0.00037398 RMS(Int)=  0.38557605
 Iteration 12 RMS(Cart)=  0.00045466 RMS(Int)=  0.37550540
 Iteration 13 RMS(Cart)=  0.00047668 RMS(Int)=  0.36656022
 Iteration 14 RMS(Cart)=  0.00045295 RMS(Int)=  0.35886420
 Iteration 15 RMS(Cart)=  0.00040442 RMS(Int)=  0.35236875
 Iteration 16 RMS(Cart)=  0.00035060 RMS(Int)=  0.34683674
 Iteration 17 RMS(Cart)=  0.00030267 RMS(Int)=  0.34208473
 Iteration 18 RMS(Cart)=  0.00026373 RMS(Int)=  0.33791410
 Iteration 19 RMS(Cart)=  0.00023398 RMS(Int)=  0.33416561
 Iteration 20 RMS(Cart)=  0.00021186 RMS(Int)=  0.33072031
 Iteration 21 RMS(Cart)=  0.00019552 RMS(Int)=  0.32750019
 Iteration 22 RMS(Cart)=  0.00018444 RMS(Int)=  0.32447614
 Iteration 23 RMS(Cart)=  0.00017625 RMS(Int)=  0.32159444
 Iteration 24 RMS(Cart)=  0.00017019 RMS(Int)=  0.31881569
 Iteration 25 RMS(Cart)=  0.00016419 RMS(Int)=  0.31610948
 Iteration 26 RMS(Cart)=  0.00016128 RMS(Int)=  0.31346981
 Iteration 27 RMS(Cart)=  0.00015781 RMS(Int)=  0.31088455
 Iteration 28 RMS(Cart)=  0.00016032 RMS(Int)=  0.30834163
 Iteration 29 RMS(Cart)=  0.00015570 RMS(Int)=  0.30583286
 Iteration 30 RMS(Cart)=  0.00016126 RMS(Int)=  0.30333453
 Iteration 31 RMS(Cart)=  0.00015278 RMS(Int)=  0.30086859
 Iteration 32 RMS(Cart)=  0.00015861 RMS(Int)=  0.29840253
 Iteration 33 RMS(Cart)=  0.00015379 RMS(Int)=  0.29595654
 Iteration 34 RMS(Cart)=  0.00014763 RMS(Int)=  0.29355913
 Iteration 35 RMS(Cart)=  0.00015630 RMS(Int)=  0.29114451
 Iteration 36 RMS(Cart)=  0.00015571 RMS(Int)=  0.28871748
 Iteration 37 RMS(Cart)=  0.00016096 RMS(Int)=  0.28621632
 Iteration 38 RMS(Cart)=  0.00014195 RMS(Int)=  0.28379015
 Iteration 39 RMS(Cart)=  0.00011189 RMS(Int)=  0.28167476
 Iteration 40 RMS(Cart)=  0.00015959 RMS(Int)=  0.27934436
 Iteration 41 RMS(Cart)=  0.00017642 RMS(Int)=  0.27670015
 Iteration 42 RMS(Cart)=  0.00013334 RMS(Int)=  0.27419076
 Iteration 43 RMS(Cart)=  0.00015429 RMS(Int)=  0.27124351
 Iteration 44 RMS(Cart)=  0.00015145 RMS(Int)=  0.26772049
 New curvilinear step failed:  FormB failed.
 Error imposing constraints
 Error termination via Lnk1e in /shared/centos7/gaussian/g16/l103.exe at Sat Mar  9 10:12:28 2019.
 Job cpu time:       0 days 15 hours 29 minutes 43.7 seconds.
 Elapsed time:       0 days  0 hours 58 minutes 21.7 seconds.
 File lengths (MBytes):  RWF=   1328 Int=      0 D2E=      0 Chk=     32 Scr=     32
