 Entering Gaussian System, Link 0=g16
 Input=TVFRQKHUZDMLDB-UHFFFAOYSA-N_GeoFreq_a2.com
 Output=TVFRQKHUZDMLDB-UHFFFAOYSA-N_GeoFreq_a2.log
 Initial command:
 /shared/centos7/gaussian/g16/l1.exe "/scratch/underkoffler.c/gaussian_scratch/Gau-29425.inp" -scrdir="/scratch/underkoffler.c/gaussian_scratch/"
 Entering Link 1 = /shared/centos7/gaussian/g16/l1.exe PID=     29426.
  
 Copyright (c) 1988,1990,1992,1993,1995,1998,2003,2009,2016,
            Gaussian, Inc.  All Rights Reserved.
  
 This is part of the Gaussian(R) 16 program.  It is based on
 the Gaussian(R) 09 system (copyright 2009, Gaussian, Inc.),
 the Gaussian(R) 03 system (copyright 2003, Gaussian, Inc.),
 the Gaussian(R) 98 system (copyright 1998, Gaussian, Inc.),
 the Gaussian(R) 94 system (copyright 1995, Gaussian, Inc.),
 the Gaussian 92(TM) system (copyright 1992, Gaussian, Inc.),
 the Gaussian 90(TM) system (copyright 1990, Gaussian, Inc.),
 the Gaussian 88(TM) system (copyright 1988, Gaussian, Inc.),
 the Gaussian 86(TM) system (copyright 1986, Carnegie Mellon
 University), and the Gaussian 82(TM) system (copyright 1983,
 Carnegie Mellon University). Gaussian is a federally registered
 trademark of Gaussian, Inc.
  
 This software contains proprietary and confidential information,
 including trade secrets, belonging to Gaussian, Inc.
  
 This software is provided under written license and may be
 used, copied, transmitted, or stored only in accord with that
 written license.
  
 The following legend is applicable only to US Government
 contracts under FAR:
  
                    RESTRICTED RIGHTS LEGEND
  
 Use, reproduction and disclosure by the US Government is
 subject to restrictions as set forth in subparagraphs (a)
 and (c) of the Commercial Computer Software - Restricted
 Rights clause in FAR 52.227-19.
  
 Gaussian, Inc.
 340 Quinnipiac St., Bldg. 40, Wallingford CT 06492
  
  
 ---------------------------------------------------------------
 Warning -- This program may not be used in any manner that
 competes with the business of Gaussian, Inc. or will provide
 assistance to any competitor of Gaussian, Inc.  The licensee
 of this program is prohibited from giving any competitor of
 Gaussian, Inc. access to this program.  By using this program,
 the user acknowledges that Gaussian, Inc. is engaged in the
 business of creating and licensing software in the field of
 computational chemistry and represents and warrants to the
 licensee that it is not a competitor of Gaussian, Inc. and that
 it will not use this program in any manner prohibited above.
 ---------------------------------------------------------------
  

 Cite this work as:
 Gaussian 16, Revision A.03,
 M. J. Frisch, G. W. Trucks, H. B. Schlegel, G. E. Scuseria, 
 M. A. Robb, J. R. Cheeseman, G. Scalmani, V. Barone, 
 G. A. Petersson, H. Nakatsuji, X. Li, M. Caricato, A. V. Marenich, 
 J. Bloino, B. G. Janesko, R. Gomperts, B. Mennucci, H. P. Hratchian, 
 J. V. Ortiz, A. F. Izmaylov, J. L. Sonnenberg, D. Williams-Young, 
 F. Ding, F. Lipparini, F. Egidi, J. Goings, B. Peng, A. Petrone, 
 T. Henderson, D. Ranasinghe, V. G. Zakrzewski, J. Gao, N. Rega, 
 G. Zheng, W. Liang, M. Hada, M. Ehara, K. Toyota, R. Fukuda, 
 J. Hasegawa, M. Ishida, T. Nakajima, Y. Honda, O. Kitao, H. Nakai, 
 T. Vreven, K. Throssell, J. A. Montgomery, Jr., J. E. Peralta, 
 F. Ogliaro, M. J. Bearpark, J. J. Heyd, E. N. Brothers, K. N. Kudin, 
 V. N. Staroverov, T. A. Keith, R. Kobayashi, J. Normand, 
 K. Raghavachari, A. P. Rendell, J. C. Burant, S. S. Iyengar, 
 J. Tomasi, M. Cossi, J. M. Millam, M. Klene, C. Adamo, R. Cammi, 
 J. W. Ochterski, R. L. Martin, K. Morokuma, O. Farkas, 
 J. B. Foresman, and D. J. Fox, Gaussian, Inc., Wallingford CT, 2016.
 
 ******************************************
 Gaussian 16:  EM64L-G16RevA.03 25-Dec-2016
                13-Mar-2019 
 ******************************************
 %nprocshared=20
 Will use up to   20 processors via shared memory.
 %mem=5GB
 ----------------------------------------------------------------------
 #p m062x/6-311+g(2df,2p) opt=(calcfc,verytight,gdiis,maxcycles=900) fr
 eq iop(7/33=1,2/16=3)
 ----------------------------------------------------------------------

 Warning!  Use of Opt=GDIIS is deprecated since it is seldom a good choice.

 1/6=900,7=1,10=4,18=20,19=11,26=3,38=1/1,3;
 2/9=110,12=2,16=3,17=6,18=5,40=1/2;
 3/5=4,6=6,7=214,11=2,25=1,30=1,71=2,74=-55,140=1/1,2,3;
 4//1;
 5/5=2,38=5/2;
 8/6=4,10=90,11=11/1;
 11/6=1,8=1,9=11,15=111,16=1/1,2,10;
 10/6=1,13=1/2;
 6/7=2,8=2,9=2,10=2,28=1/1;
 7/10=1,18=20,25=1,33=1/1,2,3,16;
 1/6=900,7=1,10=4,18=20,19=11,26=3/3(2);
 2/9=110,16=3/2;
 99//99;
 2/9=110,16=3/2;
 3/5=4,6=6,7=214,11=2,25=1,30=1,71=1,74=-55/1,2,3;
 4/5=5,16=3,69=1/1;
 5/5=2,38=5/2;
 7/33=1/1,2,3,16;
 1/6=900,7=1,18=20,19=11,26=3/3(-5);
 2/9=110,16=3/2;
 6/7=2,8=2,9=2,10=2,19=2,28=1/1;
 99/9=1/99;
 Leave Link    1 at Wed Mar 13 04:13:38 2019, MaxMem=   671088640 cpu:              26.9 elap:               1.4
 (Enter /shared/centos7/gaussian/g16/l101.exe)
 ------------------------------
 Gaussian input prepared by ASE
 ------------------------------
 Symbolic Z-matrix:
 Charge =  0 Multiplicity = 2
 O                     0.58513  -0.45957   0.01944 
 C                    -0.44433   0.51587   0.05686 
 C                    -1.77521  -0.19034  -0.04152 
 C                     1.83772   0.03338   0.02131 
 H                    -0.30283   1.21374  -0.77483 
 H                    -0.36215   1.08105   0.9897 
 H                    -1.84138  -0.74901  -0.97359 
 H                    -1.89693  -0.88526   0.78757 
 H                    -2.58793   0.53393  -0.01056 
 H                     2.60926  -0.71466  -0.0562 
 H                     1.9918    1.04338  -0.33758 
 
 Add atom      4 valence  3 ND=      2 dihedral       1      4     10     11
 ITRead=  0  0  0  0  0  0  0  0  0  0  0
 MicOpt= -1 -1 -1 -1 -1 -1 -1 -1 -1 -1 -1
 NAtoms=     11 NQM=       11 NQMF=       0 NMMI=      0 NMMIF=      0
                NMic=       0 NMicF=      0.
                    Isotopes and Nuclear Properties:
 (Nuclear quadrupole moments (NQMom) in fm**2, nuclear magnetic moments (NMagM)
  in nuclear magnetons)

  Atom         1           2           3           4           5           6           7           8           9          10
 IAtWgt=          16          12          12          12           1           1           1           1           1           1
 AtmWgt=  15.9949146  12.0000000  12.0000000  12.0000000   1.0078250   1.0078250   1.0078250   1.0078250   1.0078250   1.0078250
 NucSpn=           0           0           0           0           1           1           1           1           1           1
 AtZEff=  -0.0000000  -0.0000000  -0.0000000  -0.0000000  -0.0000000  -0.0000000  -0.0000000  -0.0000000  -0.0000000  -0.0000000
 NQMom=    0.0000000   0.0000000   0.0000000   0.0000000   0.0000000   0.0000000   0.0000000   0.0000000   0.0000000   0.0000000
 NMagM=    0.0000000   0.0000000   0.0000000   0.0000000   2.7928460   2.7928460   2.7928460   2.7928460   2.7928460   2.7928460
 AtZNuc=   8.0000000   6.0000000   6.0000000   6.0000000   1.0000000   1.0000000   1.0000000   1.0000000   1.0000000   1.0000000

  Atom        11
 IAtWgt=           1
 AtmWgt=   1.0078250
 NucSpn=           1
 AtZEff=  -0.0000000
 NQMom=    0.0000000
 NMagM=    2.7928460
 AtZNuc=   1.0000000
 Leave Link  101 at Wed Mar 13 04:13:38 2019, MaxMem=   671088640 cpu:               5.6 elap:               0.3
 (Enter /shared/centos7/gaussian/g16/l103.exe)

 GradGradGradGradGradGradGradGradGradGradGradGradGradGradGradGradGradGrad
 Berny optimization.
 Initialization pass.
                           ----------------------------
                           !    Initial Parameters    !
                           ! (Angstroms and Degrees)  !
 --------------------------                            --------------------------
 ! Name  Definition              Value          Derivative Info.                !
 --------------------------------------------------------------------------------
 ! R1    R(1,2)                  1.4187         calculate D2E/DX2 analytically  !
 ! R2    R(1,4)                  1.3461         calculate D2E/DX2 analytically  !
 ! R3    R(2,3)                  1.5098         calculate D2E/DX2 analytically  !
 ! R4    R(2,5)                  1.0949         calculate D2E/DX2 analytically  !
 ! R5    R(2,6)                  1.0938         calculate D2E/DX2 analytically  !
 ! R6    R(3,7)                  1.0887         calculate D2E/DX2 analytically  !
 ! R7    R(3,8)                  1.0886         calculate D2E/DX2 analytically  !
 ! R8    R(3,9)                  1.0891         calculate D2E/DX2 analytically  !
 ! R9    R(4,10)                 1.0774         calculate D2E/DX2 analytically  !
 ! R10   R(4,11)                 1.0829         calculate D2E/DX2 analytically  !
 ! A1    A(2,1,4)              115.0501         calculate D2E/DX2 analytically  !
 ! A2    A(1,2,3)              108.4402         calculate D2E/DX2 analytically  !
 ! A3    A(1,2,5)              108.9311         calculate D2E/DX2 analytically  !
 ! A4    A(1,2,6)              108.8594         calculate D2E/DX2 analytically  !
 ! A5    A(3,2,5)              111.2578         calculate D2E/DX2 analytically  !
 ! A6    A(3,2,6)              111.3145         calculate D2E/DX2 analytically  !
 ! A7    A(5,2,6)              107.9854         calculate D2E/DX2 analytically  !
 ! A8    A(2,3,7)              110.4494         calculate D2E/DX2 analytically  !
 ! A9    A(2,3,8)              110.335          calculate D2E/DX2 analytically  !
 ! A10   A(2,3,9)              110.1748         calculate D2E/DX2 analytically  !
 ! A11   A(7,3,8)              108.5213         calculate D2E/DX2 analytically  !
 ! A12   A(7,3,9)              108.6785         calculate D2E/DX2 analytically  !
 ! A13   A(8,3,9)              108.6289         calculate D2E/DX2 analytically  !
 ! A14   A(1,4,10)             114.3304         calculate D2E/DX2 analytically  !
 ! A15   A(1,4,11)             118.2615         calculate D2E/DX2 analytically  !
 ! A16   A(10,4,11)            121.4548         calculate D2E/DX2 analytically  !
 ! D1    D(4,1,2,3)            176.3492         calculate D2E/DX2 analytically  !
 ! D2    D(4,1,2,5)             55.1239         calculate D2E/DX2 analytically  !
 ! D3    D(4,1,2,6)            -62.3994         calculate D2E/DX2 analytically  !
 ! D4    D(2,1,4,10)          -177.141          calculate D2E/DX2 analytically  !
 ! D5    D(2,1,4,11)           -23.8547         calculate D2E/DX2 analytically  !
 ! D6    D(1,2,3,7)            -60.1945         calculate D2E/DX2 analytically  !
 ! D7    D(1,2,3,8)             59.7887         calculate D2E/DX2 analytically  !
 ! D8    D(1,2,3,9)            179.7297         calculate D2E/DX2 analytically  !
 ! D9    D(5,2,3,7)             59.5858         calculate D2E/DX2 analytically  !
 ! D10   D(5,2,3,8)            179.569          calculate D2E/DX2 analytically  !
 ! D11   D(5,2,3,9)            -60.49           calculate D2E/DX2 analytically  !
 ! D12   D(6,2,3,7)           -179.9209         calculate D2E/DX2 analytically  !
 ! D13   D(6,2,3,8)            -59.9377         calculate D2E/DX2 analytically  !
 ! D14   D(6,2,3,9)             60.0033         calculate D2E/DX2 analytically  !
 ! D15   D(1,4,10,11)          152.3446         calculate D2E/DX2 analytically  !
 --------------------------------------------------------------------------------
 Trust Radius=3.00D-01 FncErr=1.00D-07 GrdErr=1.00D-06 EigMax=2.50D+02 EigMin=1.00D-04
 Number of steps in this run=    100 maximum allowed number of steps=    100.
 GradGradGradGradGradGradGradGradGradGradGradGradGradGradGradGradGradGrad

 Leave Link  103 at Wed Mar 13 04:13:38 2019, MaxMem=   671088640 cpu:               0.1 elap:               0.0
 (Enter /shared/centos7/gaussian/g16/l202.exe)
                          Input orientation:                          
 ---------------------------------------------------------------------
 Center     Atomic      Atomic             Coordinates (Angstroms)
 Number     Number       Type             X           Y           Z
 ---------------------------------------------------------------------
      1          8           0        0.585133   -0.459572    0.019444
      2          6           0       -0.444334    0.515866    0.056859
      3          6           0       -1.775208   -0.190343   -0.041519
      4          6           0        1.837723    0.033380    0.021314
      5          1           0       -0.302826    1.213735   -0.774826
      6          1           0       -0.362151    1.081047    0.989698
      7          1           0       -1.841376   -0.749013   -0.973585
      8          1           0       -1.896926   -0.885260    0.787565
      9          1           0       -2.587929    0.533928   -0.010559
     10          1           0        2.609258   -0.714657   -0.056195
     11          1           0        1.991798    1.043377   -0.337575
 ---------------------------------------------------------------------
                    Distance matrix (angstroms):
                    1          2          3          4          5
     1  O    0.000000
     2  C    1.418690   0.000000
     3  C    2.376428   1.509846   0.000000
     4  C    1.346101   2.332775   3.620396   0.000000
     5  H    2.054092   1.094872   2.162656   2.570803   0.000000
     6  H    2.052376   1.093788   2.162538   2.621988   1.770500
     7  H    2.637770   2.147897   1.088686   3.890724   2.501804
     8  H    2.632838   2.146418   1.088625   3.921561   3.063984
     9  H    3.325096   2.144731   1.089056   4.453982   2.503585
    10  H    2.041537   3.294145   4.415729   1.077420   3.565860
    11  H    2.089264   2.523606   3.974927   1.082882   2.342116
                    6          7          8          9         10
     6  H    0.000000
     7  H    3.064589   0.000000
     8  H    2.502550   1.767286   0.000000
     9  H    2.500788   1.769378   1.768780   0.000000
    10  H    3.625978   4.544329   4.587672   5.345260   0.000000
    11  H    2.702619   4.279065   4.484167   4.619565   1.884440
                   11
    11  H    0.000000
 Stoichiometry    C3H7O(2)
 Framework group  C1[X(C3H7O)]
 Deg. of freedom    27
 Full point group                 C1      NOp   1
 Largest Abelian subgroup         C1      NOp   1
 Largest concise Abelian subgroup C1      NOp   1
                         Standard orientation:                         
 ---------------------------------------------------------------------
 Center     Atomic      Atomic             Coordinates (Angstroms)
 Number     Number       Type             X           Y           Z
 ---------------------------------------------------------------------
      1          8           0        0.585133   -0.459572    0.019444
      2          6           0       -0.444334    0.515866    0.056859
      3          6           0       -1.775208   -0.190343   -0.041519
      4          6           0        1.837723    0.033380    0.021314
      5          1           0       -0.302826    1.213735   -0.774826
      6          1           0       -0.362151    1.081047    0.989698
      7          1           0       -1.841376   -0.749013   -0.973585
      8          1           0       -1.896926   -0.885260    0.787565
      9          1           0       -2.587929    0.533928   -0.010559
     10          1           0        2.609258   -0.714657   -0.056195
     11          1           0        1.991798    1.043377   -0.337575
 ---------------------------------------------------------------------
 Rotational constants (GHZ):          31.1140921           4.4199948           4.0797178
 Leave Link  202 at Wed Mar 13 04:13:38 2019, MaxMem=   671088640 cpu:               0.2 elap:               0.1
 (Enter /shared/centos7/gaussian/g16/l301.exe)
 Standard basis: 6-311+G(2df,2p) (5D, 7F)
 Ernie: Thresh=  0.10000D-02 Tol=  0.10000D-05 Strict=F.
 There are   219 symmetry adapted cartesian basis functions of A   symmetry.
 There are   199 symmetry adapted basis functions of A   symmetry.
   199 basis functions,   285 primitive gaussians,   219 cartesian basis functions
    17 alpha electrons       16 beta electrons
       nuclear repulsion energy       126.6183142314 Hartrees.
 IExCor= 4336 DFT=T Ex+Corr=M062X ExCW=0 ScaHFX=  0.540000
 ScaDFX=  1.000000  1.000000  1.000000  1.000000 ScalE2=  1.000000  1.000000
 IRadAn=      5 IRanWt=     -1 IRanGd=            0 ICorTp=0 IEmpDi=  4
 NAtoms=   11 NActive=   11 NUniq=   11 SFac= 1.00D+00 NAtFMM=   60 NAOKFM=F Big=F
 Integral buffers will be    131072 words long.
 Raffenetti 2 integral format.
 Two-electron integral symmetry is turned on.
 Leave Link  301 at Wed Mar 13 04:13:38 2019, MaxMem=   671088640 cpu:               1.2 elap:               0.1
 (Enter /shared/centos7/gaussian/g16/l302.exe)
 NPDir=0 NMtPBC=     1 NCelOv=     1 NCel=       1 NClECP=     1 NCelD=      1
         NCelK=      1 NCelE2=     1 NClLst=     1 CellRange=     0.0.
 One-electron integrals computed using PRISM.
 One-electron integral symmetry used in STVInt
 NBasis=   199 RedAO= T EigKep=  8.06D-05  NBF=   199
 NBsUse=   199 1.00D-06 EigRej= -1.00D+00 NBFU=   199
 Precomputing XC quadrature grid using
 IXCGrd= 4 IRadAn=           5 IRanWt=          -1 IRanGd=           0 AccXCQ= 0.00D+00.
 Generated NRdTot=       0 NPtTot=           0 NUsed=           0 NTot=          32
 NSgBfM=   219   219   219   219   219 MxSgAt=    11 MxSgA2=    11.
 Leave Link  302 at Wed Mar 13 04:13:39 2019, MaxMem=   671088640 cpu:               5.3 elap:               0.3
 (Enter /shared/centos7/gaussian/g16/l303.exe)
 DipDrv:  MaxL=1.
 Leave Link  303 at Wed Mar 13 04:13:39 2019, MaxMem=   671088640 cpu:               0.5 elap:               0.0
 (Enter /shared/centos7/gaussian/g16/l401.exe)
 ExpMin= 4.38D-02 ExpMax= 8.59D+03 ExpMxC= 1.30D+03 IAcc=3 IRadAn=         5 AccDes= 0.00D+00
 Harris functional with IExCor= 1009 and IRadAn=       5 diagonalized for initial guess.
 HarFok:  IExCor= 1009 AccDes= 0.00D+00 IRadAn=         5 IDoV= 1 UseB2=F ITyADJ=14
 ICtDFT=  3500011 ScaDFX=  1.000000  1.000000  1.000000  1.000000
 FoFCou: FMM=F IPFlag=           0 FMFlag=      100000 FMFlg1=           0
         NFxFlg=           0 DoJE=T BraDBF=F KetDBF=T FulRan=T
         wScrn=  0.000000 ICntrl=       500 IOpCl=  0 I1Cent=   200000004 NGrid=           0
         NMat0=    1 NMatS0=      1 NMatT0=    0 NMatD0=    1 NMtDS0=    0 NMtDT0=    0
 Petite list used in FoFCou.
 Harris En= -193.577324373821    
 JPrj=0 DoOrth=F DoCkMO=F.
 Initial guess <Sx>= 0.0000 <Sy>= 0.0000 <Sz>= 0.5000 <S**2>= 0.7500 S= 0.5000
 Leave Link  401 at Wed Mar 13 04:13:40 2019, MaxMem=   671088640 cpu:              14.7 elap:               0.8
 (Enter /shared/centos7/gaussian/g16/l502.exe)
 Keep R1 and R2 ints in memory in canonical form, NReq=416958841.
 FoFCou: FMM=F IPFlag=           0 FMFlag=           0 FMFlg1=           0
         NFxFlg=           0 DoJE=F BraDBF=F KetDBF=F FulRan=T
         wScrn=  0.000000 ICntrl=       600 IOpCl=  0 I1Cent=           0 NGrid=           0
         NMat0=    1 NMatS0=  19900 NMatT0=    0 NMatD0=    1 NMtDS0=    0 NMtDT0=    0
 Symmetry not used in FoFCou.
 Two-electron integral symmetry not used.
 UHF open shell SCF:
 Using DIIS extrapolation, IDIIS=  1040.
 NGot=   671088640 LenX=   274956345 LenY=   274907943
 Requested convergence on RMS density matrix=1.00D-08 within 128 cycles.
 Requested convergence on MAX density matrix=1.00D-06.
 Requested convergence on             energy=1.00D-06.
 No special actions if energy rises.

 Cycle   1  Pass 1  IDiag  1:
 E= -193.526411911300    
 DIIS: error= 2.21D-02 at cycle   1 NSaved=   1.
 NSaved= 1 IEnMin= 1 EnMin= -193.526411911300     IErMin= 1 ErrMin= 2.21D-02
 ErrMax= 2.21D-02  0.00D+00 EMaxC= 1.00D-01 BMatC= 6.05D-01 BMatP= 6.05D-01
 IDIUse=3 WtCom= 7.79D-01 WtEn= 2.21D-01
 Coeff-Com:  0.100D+01
 Coeff-En:   0.100D+01
 Coeff:      0.100D+01
 Gap=     0.228 Goal=   None    Shift=    0.000
 Gap=     0.399 Goal=   None    Shift=    0.000
 GapD=    0.228 DampG=1.000 DampE=0.500 DampFc=0.5000 IDamp=-1.
 Damping current iteration by 5.00D-01
 RMSDP=2.19D-03 MaxDP=1.12D-01              OVMax= 1.40D-01

 Cycle   2  Pass 1  IDiag  1:
 E= -193.593416181243     Delta-E=       -0.067004269943 Rises=F Damp=T
 DIIS: error= 5.79D-03 at cycle   2 NSaved=   2.
 NSaved= 2 IEnMin= 2 EnMin= -193.593416181243     IErMin= 2 ErrMin= 5.79D-03
 ErrMax= 5.79D-03  0.00D+00 EMaxC= 1.00D-01 BMatC= 4.79D-02 BMatP= 6.05D-01
 IDIUse=3 WtCom= 9.42D-01 WtEn= 5.79D-02
 Coeff-Com: -0.190D+00 0.119D+01
 Coeff-En:   0.000D+00 0.100D+01
 Coeff:     -0.179D+00 0.118D+01
 Gap=     0.246 Goal=   None    Shift=    0.000
 Gap=     0.394 Goal=   None    Shift=    0.000
 RMSDP=6.39D-04 MaxDP=2.14D-02 DE=-6.70D-02 OVMax= 7.09D-02

 Cycle   3  Pass 1  IDiag  1:
 E= -193.652577953277     Delta-E=       -0.059161772033 Rises=F Damp=F
 DIIS: error= 2.03D-03 at cycle   3 NSaved=   3.
 NSaved= 3 IEnMin= 3 EnMin= -193.652577953277     IErMin= 3 ErrMin= 2.03D-03
 ErrMax= 2.03D-03  0.00D+00 EMaxC= 1.00D-01 BMatC= 4.43D-03 BMatP= 4.79D-02
 IDIUse=3 WtCom= 9.80D-01 WtEn= 2.03D-02
 Coeff-Com: -0.814D-01 0.238D+00 0.843D+00
 Coeff-En:   0.000D+00 0.000D+00 0.100D+01
 Coeff:     -0.798D-01 0.233D+00 0.847D+00
 Gap=     0.249 Goal=   None    Shift=    0.000
 Gap=     0.361 Goal=   None    Shift=    0.000
 RMSDP=1.49D-04 MaxDP=5.49D-03 DE=-5.92D-02 OVMax= 8.91D-03

 Cycle   4  Pass 1  IDiag  1:
 E= -193.653500875678     Delta-E=       -0.000922922401 Rises=F Damp=F
 DIIS: error= 1.27D-03 at cycle   4 NSaved=   4.
 NSaved= 4 IEnMin= 4 EnMin= -193.653500875678     IErMin= 4 ErrMin= 1.27D-03
 ErrMax= 1.27D-03  0.00D+00 EMaxC= 1.00D-01 BMatC= 1.14D-03 BMatP= 4.43D-03
 IDIUse=3 WtCom= 9.87D-01 WtEn= 1.27D-02
 Coeff-Com: -0.265D-01 0.632D-01 0.375D+00 0.589D+00
 Coeff-En:   0.000D+00 0.000D+00 0.000D+00 0.100D+01
 Coeff:     -0.262D-01 0.623D-01 0.370D+00 0.594D+00
 Gap=     0.248 Goal=   None    Shift=    0.000
 Gap=     0.365 Goal=   None    Shift=    0.000
 RMSDP=5.82D-05 MaxDP=3.34D-03 DE=-9.23D-04 OVMax= 1.04D-02

 Cycle   5  Pass 1  IDiag  1:
 E= -193.653765478130     Delta-E=       -0.000264602453 Rises=F Damp=F
 DIIS: error= 4.11D-04 at cycle   5 NSaved=   5.
 NSaved= 5 IEnMin= 5 EnMin= -193.653765478130     IErMin= 5 ErrMin= 4.11D-04
 ErrMax= 4.11D-04  0.00D+00 EMaxC= 1.00D-01 BMatC= 1.94D-04 BMatP= 1.14D-03
 IDIUse=3 WtCom= 9.96D-01 WtEn= 4.11D-03
 Coeff-Com:  0.421D-02-0.176D-01 0.167D-02 0.260D+00 0.752D+00
 Coeff-En:   0.000D+00 0.000D+00 0.000D+00 0.000D+00 0.100D+01
 Coeff:      0.419D-02-0.176D-01 0.166D-02 0.259D+00 0.753D+00
 Gap=     0.248 Goal=   None    Shift=    0.000
 Gap=     0.365 Goal=   None    Shift=    0.000
 RMSDP=3.32D-05 MaxDP=1.14D-03 DE=-2.65D-04 OVMax= 4.25D-03

 Cycle   6  Pass 1  IDiag  1:
 E= -193.653829113469     Delta-E=       -0.000063635339 Rises=F Damp=F
 DIIS: error= 1.93D-04 at cycle   6 NSaved=   6.
 NSaved= 6 IEnMin= 6 EnMin= -193.653829113469     IErMin= 6 ErrMin= 1.93D-04
 ErrMax= 1.93D-04  0.00D+00 EMaxC= 1.00D-01 BMatC= 2.53D-05 BMatP= 1.94D-04
 IDIUse=3 WtCom= 9.98D-01 WtEn= 1.93D-03
 Coeff-Com:  0.694D-02-0.169D-01-0.908D-01-0.477D-01 0.315D-01 0.112D+01
 Coeff-En:   0.000D+00 0.000D+00 0.000D+00 0.000D+00 0.000D+00 0.100D+01
 Coeff:      0.692D-02-0.169D-01-0.906D-01-0.476D-01 0.314D-01 0.112D+01
 Gap=     0.250 Goal=   None    Shift=    0.000
 Gap=     0.365 Goal=   None    Shift=    0.000
 RMSDP=3.00D-05 MaxDP=1.36D-03 DE=-6.36D-05 OVMax= 4.63D-03

 Cycle   7  Pass 1  IDiag  1:
 E= -193.653851889975     Delta-E=       -0.000022776505 Rises=F Damp=F
 DIIS: error= 8.35D-05 at cycle   7 NSaved=   7.
 NSaved= 7 IEnMin= 7 EnMin= -193.653851889975     IErMin= 7 ErrMin= 8.35D-05
 ErrMax= 8.35D-05  0.00D+00 EMaxC= 1.00D-01 BMatC= 8.27D-06 BMatP= 2.53D-05
 IDIUse=1 WtCom= 1.00D+00 WtEn= 0.00D+00
 Coeff-Com:  0.106D-02-0.999D-03-0.327D-01-0.710D-01-0.222D+00 0.444D+00
 Coeff-Com:  0.882D+00
 Coeff:      0.106D-02-0.999D-03-0.327D-01-0.710D-01-0.222D+00 0.444D+00
 Coeff:      0.882D+00
 Gap=     0.250 Goal=   None    Shift=    0.000
 Gap=     0.365 Goal=   None    Shift=    0.000
 RMSDP=1.41D-05 MaxDP=6.19D-04 DE=-2.28D-05 OVMax= 2.35D-03

 Cycle   8  Pass 1  IDiag  1:
 E= -193.653856695269     Delta-E=       -0.000004805294 Rises=F Damp=F
 DIIS: error= 3.00D-05 at cycle   8 NSaved=   8.
 NSaved= 8 IEnMin= 8 EnMin= -193.653856695269     IErMin= 8 ErrMin= 3.00D-05
 ErrMax= 3.00D-05  0.00D+00 EMaxC= 1.00D-01 BMatC= 3.77D-07 BMatP= 8.27D-06
 IDIUse=1 WtCom= 1.00D+00 WtEn= 0.00D+00
 Coeff-Com: -0.113D-02 0.252D-02 0.143D-01 0.144D-01 0.112D-01-0.169D+00
 Coeff-Com: -0.550D-01 0.118D+01
 Coeff:     -0.113D-02 0.252D-02 0.143D-01 0.144D-01 0.112D-01-0.169D+00
 Coeff:     -0.550D-01 0.118D+01
 Gap=     0.250 Goal=   None    Shift=    0.000
 Gap=     0.365 Goal=   None    Shift=    0.000
 RMSDP=4.21D-06 MaxDP=1.96D-04 DE=-4.81D-06 OVMax= 5.63D-04

 Cycle   9  Pass 1  IDiag  1:
 E= -193.653856989024     Delta-E=       -0.000000293755 Rises=F Damp=F
 DIIS: error= 6.27D-06 at cycle   9 NSaved=   9.
 NSaved= 9 IEnMin= 9 EnMin= -193.653856989024     IErMin= 9 ErrMin= 6.27D-06
 ErrMax= 6.27D-06  0.00D+00 EMaxC= 1.00D-01 BMatC= 5.42D-08 BMatP= 3.77D-07
 IDIUse=1 WtCom= 1.00D+00 WtEn= 0.00D+00
 Coeff-Com: -0.385D-03 0.778D-03 0.681D-02 0.104D-01 0.200D-01-0.835D-01
 Coeff-Com: -0.871D-01 0.326D+00 0.808D+00
 Coeff:     -0.385D-03 0.778D-03 0.681D-02 0.104D-01 0.200D-01-0.835D-01
 Coeff:     -0.871D-01 0.326D+00 0.808D+00
 Gap=     0.250 Goal=   None    Shift=    0.000
 Gap=     0.365 Goal=   None    Shift=    0.000
 RMSDP=7.38D-07 MaxDP=3.67D-05 DE=-2.94D-07 OVMax= 9.87D-05

 Cycle  10  Pass 1  IDiag  1:
 E= -193.653857009968     Delta-E=       -0.000000020944 Rises=F Damp=F
 DIIS: error= 3.29D-06 at cycle  10 NSaved=  10.
 NSaved=10 IEnMin=10 EnMin= -193.653857009968     IErMin=10 ErrMin= 3.29D-06
 ErrMax= 3.29D-06  0.00D+00 EMaxC= 1.00D-01 BMatC= 7.99D-09 BMatP= 5.42D-08
 IDIUse=1 WtCom= 1.00D+00 WtEn= 0.00D+00
 Coeff-Com:  0.110D-03-0.246D-03-0.656D-03 0.494D-03 0.193D-02 0.729D-02
 Coeff-Com: -0.105D-01-0.110D+00 0.185D+00 0.926D+00
 Coeff:      0.110D-03-0.246D-03-0.656D-03 0.494D-03 0.193D-02 0.729D-02
 Coeff:     -0.105D-01-0.110D+00 0.185D+00 0.926D+00
 Gap=     0.250 Goal=   None    Shift=    0.000
 Gap=     0.365 Goal=   None    Shift=    0.000
 RMSDP=3.19D-07 MaxDP=1.13D-05 DE=-2.09D-08 OVMax= 3.17D-05

 Cycle  11  Pass 1  IDiag  1:
 E= -193.653857013256     Delta-E=       -0.000000003288 Rises=F Damp=F
 DIIS: error= 8.77D-07 at cycle  11 NSaved=  11.
 NSaved=11 IEnMin=11 EnMin= -193.653857013256     IErMin=11 ErrMin= 8.77D-07
 ErrMax= 8.77D-07  0.00D+00 EMaxC= 1.00D-01 BMatC= 6.30D-10 BMatP= 7.99D-09
 IDIUse=1 WtCom= 1.00D+00 WtEn= 0.00D+00
 Coeff-Com:  0.552D-04-0.119D-03-0.780D-03-0.842D-03-0.192D-02 0.949D-02
 Coeff-Com:  0.797D-02-0.506D-01-0.686D-01 0.144D+00 0.961D+00
 Coeff:      0.552D-04-0.119D-03-0.780D-03-0.842D-03-0.192D-02 0.949D-02
 Coeff:      0.797D-02-0.506D-01-0.686D-01 0.144D+00 0.961D+00
 Gap=     0.250 Goal=   None    Shift=    0.000
 Gap=     0.365 Goal=   None    Shift=    0.000
 RMSDP=1.14D-07 MaxDP=3.66D-06 DE=-3.29D-09 OVMax= 8.01D-06

 Cycle  12  Pass 1  IDiag  1:
 E= -193.653857013543     Delta-E=       -0.000000000286 Rises=F Damp=F
 DIIS: error= 1.74D-07 at cycle  12 NSaved=  12.
 NSaved=12 IEnMin=12 EnMin= -193.653857013543     IErMin=12 ErrMin= 1.74D-07
 ErrMax= 1.74D-07  0.00D+00 EMaxC= 1.00D-01 BMatC= 3.05D-11 BMatP= 6.30D-10
 IDIUse=1 WtCom= 1.00D+00 WtEn= 0.00D+00
 Coeff-Com: -0.869D-05 0.177D-04 0.423D-04 0.150D-04-0.650D-04-0.529D-03
 Coeff-Com:  0.563D-03 0.730D-02-0.161D-01-0.640D-01 0.149D-01 0.106D+01
 Coeff:     -0.869D-05 0.177D-04 0.423D-04 0.150D-04-0.650D-04-0.529D-03
 Coeff:      0.563D-03 0.730D-02-0.161D-01-0.640D-01 0.149D-01 0.106D+01
 Gap=     0.250 Goal=   None    Shift=    0.000
 Gap=     0.365 Goal=   None    Shift=    0.000
 RMSDP=3.37D-08 MaxDP=1.00D-06 DE=-2.86D-10 OVMax= 2.32D-06

 Cycle  13  Pass 1  IDiag  1:
 E= -193.653857013563     Delta-E=       -0.000000000021 Rises=F Damp=F
 DIIS: error= 4.61D-08 at cycle  13 NSaved=  13.
 NSaved=13 IEnMin=13 EnMin= -193.653857013563     IErMin=13 ErrMin= 4.61D-08
 ErrMax= 4.61D-08  0.00D+00 EMaxC= 1.00D-01 BMatC= 1.57D-12 BMatP= 3.05D-11
 IDIUse=1 WtCom= 1.00D+00 WtEn= 0.00D+00
 Coeff-Com: -0.165D-05 0.381D-05 0.281D-04 0.316D-04 0.715D-04-0.372D-03
 Coeff-Com: -0.302D-03 0.187D-02 0.427D-02-0.566D-02-0.485D-01-0.514D-01
 Coeff-Com:  0.110D+01
 Coeff:     -0.165D-05 0.381D-05 0.281D-04 0.316D-04 0.715D-04-0.372D-03
 Coeff:     -0.302D-03 0.187D-02 0.427D-02-0.566D-02-0.485D-01-0.514D-01
 Coeff:      0.110D+01
 Gap=     0.250 Goal=   None    Shift=    0.000
 Gap=     0.365 Goal=   None    Shift=    0.000
 RMSDP=7.90D-09 MaxDP=2.64D-07 DE=-2.05D-11 OVMax= 5.75D-07

 SCF Done:  E(UM062X) =  -193.653857014     A.U. after   13 cycles
            NFock= 13  Conv=0.79D-08     -V/T= 2.0038
 <Sx>= 0.0000 <Sy>= 0.0000 <Sz>= 0.5000 <S**2>= 0.7546 S= 0.5023
 <L.S>= 0.000000000000E+00
 KE= 1.929289442537D+02 PE=-7.049947846590D+02 EE= 1.917936691603D+02
 Annihilation of the first spin contaminant:
 S**2 before annihilation     0.7546,   after     0.7500
 Leave Link  502 at Wed Mar 13 04:14:06 2019, MaxMem=   671088640 cpu:             383.4 elap:              26.7
 (Enter /shared/centos7/gaussian/g16/l801.exe)
 DoSCS=F DFT=T ScalE2(SS,OS)=  1.000000  1.000000
 Range of M.O.s used for correlation:     1   199
 NBasis=   199 NAE=    17 NBE=    16 NFC=     0 NFV=     0
 NROrb=    199 NOA=    17 NOB=    16 NVA=   182 NVB=   183

 **** Warning!!: The largest alpha MO coefficient is  0.39916301D+02


 **** Warning!!: The largest beta MO coefficient is  0.37732971D+02

 Leave Link  801 at Wed Mar 13 04:14:06 2019, MaxMem=   671088640 cpu:               0.3 elap:               0.0
 (Enter /shared/centos7/gaussian/g16/l1101.exe)
 Using compressed storage, NAtomX=    11.
 Will process     12 centers per pass.
 Leave Link 1101 at Wed Mar 13 04:14:07 2019, MaxMem=   671088640 cpu:               5.1 elap:               0.3
 (Enter /shared/centos7/gaussian/g16/l1102.exe)
 Symmetrizing basis deriv contribution to polar:
 IMax=3 JMax=2 DiffMx= 0.00D+00
 Leave Link 1102 at Wed Mar 13 04:14:07 2019, MaxMem=   671088640 cpu:               0.4 elap:               0.0
 (Enter /shared/centos7/gaussian/g16/l1110.exe)
 Forming Gx(P) for the SCF density, NAtomX=    11.
 Integral derivatives from FoFJK, PRISM(SPDF).
 Do as many integral derivatives as possible in FoFJK.
 G2DrvN: MDV=     671087712.
 G2DrvN: will do    12 centers at a time, making    1 passes.
 Calling FoFCou, ICntrl=  3107 FMM=F I1Cent=   0 AccDes= 0.00D+00.
 FoFJK:  IHMeth= 1 ICntrl=    3107 DoSepK=F KAlg= 0 I1Cent=           0 FoldK=F
 IRaf=         0 NMat=       1 IRICut=       1 DoRegI=T DoRafI=F ISym2E= 0 IDoP0=0 IntGTp=1.
 FoFCou: FMM=F IPFlag=           0 FMFlag=      100000 FMFlg1=           0
         NFxFlg=           0 DoJE=F BraDBF=F KetDBF=F FulRan=T
         wScrn=  0.000000 ICntrl=      3107 IOpCl=  1 I1Cent=           0 NGrid=           0
         NMat0=    1 NMatS0=      1 NMatT0=    0 NMatD0=    1 NMtDS0=    0 NMtDT0=    0
 Symmetry not used in FoFCou.
 End of G2Drv F.D. properties file   721 does not exist.
 End of G2Drv F.D. properties file   722 does not exist.
 End of G2Drv F.D. properties file   788 does not exist.
 Leave Link 1110 at Wed Mar 13 04:14:44 2019, MaxMem=   671088640 cpu:             746.8 elap:              37.4
 (Enter /shared/centos7/gaussian/g16/l1002.exe)
 Minotr:  UHF open shell wavefunction.
          IDoAtm=11111111111
          Direct CPHF calculation.
          Differentiating once with respect to nuclear coordinates.
          Requested convergence is 1.0D-08 RMS, and 1.0D-07 maximum.
          Secondary convergence is 1.0D-12 RMS, and 1.0D-12 maximum.
          NewPWx=T KeepS1=F KeepF1=F KeepIn=T MapXYZ=F SortEE=F KeepMc=T.
         3349 words used for storage of precomputed grid.
 Keep R1 and R2 ints in memory in canonical form, NReq=416899978.
 FoFCou: FMM=F IPFlag=           0 FMFlag=           0 FMFlg1=           0
         NFxFlg=           0 DoJE=F BraDBF=F KetDBF=F FulRan=T
         wScrn=  0.000000 ICntrl=       600 IOpCl=  0 I1Cent=           0 NGrid=           0
         NMat0=    1 NMatS0=  19900 NMatT0=    0 NMatD0=    1 NMtDS0=    0 NMtDT0=    0
 Symmetry not used in FoFCou.
 Two-electron integral symmetry not used.
          MDV=     671088640 using IRadAn=       1.
          Solving linear equations simultaneously, MaxMat=       0.
          There are    36 degrees of freedom in the 1st order CPHF.  IDoFFX=6 NUNeed=     0.
     30 vectors produced by pass  0 Test12= 1.67D-14 2.78D-09 XBig12= 1.52D-01 6.37D-02.
 AX will form    30 AO Fock derivatives at one time.
     30 vectors produced by pass  1 Test12= 1.67D-14 2.78D-09 XBig12= 1.06D-02 2.25D-02.
     30 vectors produced by pass  2 Test12= 1.67D-14 2.78D-09 XBig12= 6.02D-04 4.91D-03.
     30 vectors produced by pass  3 Test12= 1.67D-14 2.78D-09 XBig12= 8.74D-06 4.27D-04.
     30 vectors produced by pass  4 Test12= 1.67D-14 2.78D-09 XBig12= 1.22D-07 4.21D-05.
     30 vectors produced by pass  5 Test12= 1.67D-14 2.78D-09 XBig12= 1.72D-09 4.78D-06.
     27 vectors produced by pass  6 Test12= 1.67D-14 2.78D-09 XBig12= 1.30D-11 4.05D-07.
     10 vectors produced by pass  7 Test12= 1.67D-14 2.78D-09 XBig12= 8.79D-14 2.88D-08.
 InvSVY:  IOpt=1 It=  1 EMax= 1.55D-15
 Solved reduced A of dimension   217 with    30 vectors.
 End of Minotr F.D. properties file   721 does not exist.
 End of Minotr F.D. properties file   722 does not exist.
 End of Minotr F.D. properties file   788 does not exist.
 Leave Link 1002 at Wed Mar 13 04:15:33 2019, MaxMem=   671088640 cpu:             975.1 elap:              48.8
 (Enter /shared/centos7/gaussian/g16/l601.exe)
 Copying SCF densities to generalized density rwf, IOpCl= 1 IROHF=0.

 **********************************************************************

            Population analysis using the SCF density.

 **********************************************************************

 Orbital symmetries:
 Alpha Orbitals:
       Occupied  (A) (A) (A) (A) (A) (A) (A) (A) (A) (A) (A) (A)
                 (A) (A) (A) (A) (A)
       Virtual   (A) (A) (A) (A) (A) (A) (A) (A) (A) (A) (A) (A)
                 (A) (A) (A) (A) (A) (A) (A) (A) (A) (A) (A) (A)
                 (A) (A) (A) (A) (A) (A) (A) (A) (A) (A) (A) (A)
                 (A) (A) (A) (A) (A) (A) (A) (A) (A) (A) (A) (A)
                 (A) (A) (A) (A) (A) (A) (A) (A) (A) (A) (A) (A)
                 (A) (A) (A) (A) (A) (A) (A) (A) (A) (A) (A) (A)
                 (A) (A) (A) (A) (A) (A) (A) (A) (A) (A) (A) (A)
                 (A) (A) (A) (A) (A) (A) (A) (A) (A) (A) (A) (A)
                 (A) (A) (A) (A) (A) (A) (A) (A) (A) (A) (A) (A)
                 (A) (A) (A) (A) (A) (A) (A) (A) (A) (A) (A) (A)
                 (A) (A) (A) (A) (A) (A) (A) (A) (A) (A) (A) (A)
                 (A) (A) (A) (A) (A) (A) (A) (A) (A) (A) (A) (A)
                 (A) (A) (A) (A) (A) (A) (A) (A) (A) (A) (A) (A)
                 (A) (A) (A) (A) (A) (A) (A) (A) (A) (A) (A) (A)
                 (A) (A) (A) (A) (A) (A) (A) (A) (A) (A) (A) (A)
                 (A) (A)
 Beta  Orbitals:
       Occupied  (A) (A) (A) (A) (A) (A) (A) (A) (A) (A) (A) (A)
                 (A) (A) (A) (A)
       Virtual   (A) (A) (A) (A) (A) (A) (A) (A) (A) (A) (A) (A)
                 (A) (A) (A) (A) (A) (A) (A) (A) (A) (A) (A) (A)
                 (A) (A) (A) (A) (A) (A) (A) (A) (A) (A) (A) (A)
                 (A) (A) (A) (A) (A) (A) (A) (A) (A) (A) (A) (A)
                 (A) (A) (A) (A) (A) (A) (A) (A) (A) (A) (A) (A)
                 (A) (A) (A) (A) (A) (A) (A) (A) (A) (A) (A) (A)
                 (A) (A) (A) (A) (A) (A) (A) (A) (A) (A) (A) (A)
                 (A) (A) (A) (A) (A) (A) (A) (A) (A) (A) (A) (A)
                 (A) (A) (A) (A) (A) (A) (A) (A) (A) (A) (A) (A)
                 (A) (A) (A) (A) (A) (A) (A) (A) (A) (A) (A) (A)
                 (A) (A) (A) (A) (A) (A) (A) (A) (A) (A) (A) (A)
                 (A) (A) (A) (A) (A) (A) (A) (A) (A) (A) (A) (A)
                 (A) (A) (A) (A) (A) (A) (A) (A) (A) (A) (A) (A)
                 (A) (A) (A) (A) (A) (A) (A) (A) (A) (A) (A) (A)
                 (A) (A) (A) (A) (A) (A) (A) (A) (A) (A) (A) (A)
                 (A) (A) (A)
 The electronic state is 2-A.
 Alpha  occ. eigenvalues --  -19.65525 -10.59174 -10.57538 -10.53052  -1.19535
 Alpha  occ. eigenvalues --   -0.87478  -0.75871  -0.70130  -0.58002  -0.56812
 Alpha  occ. eigenvalues --   -0.55196  -0.47174  -0.45920  -0.44006  -0.41081
 Alpha  occ. eigenvalues --   -0.39729  -0.23038
 Alpha virt. eigenvalues --    0.01929   0.03543   0.04108   0.04828   0.05879
 Alpha virt. eigenvalues --    0.07209   0.08364   0.09136   0.09715   0.11050
 Alpha virt. eigenvalues --    0.13549   0.15093   0.18342   0.18940   0.19922
 Alpha virt. eigenvalues --    0.21566   0.22922   0.23512   0.24857   0.25624
 Alpha virt. eigenvalues --    0.28096   0.28263   0.28566   0.31682   0.34712
 Alpha virt. eigenvalues --    0.37076   0.41519   0.44679   0.47456   0.48006
 Alpha virt. eigenvalues --    0.50050   0.52258   0.53648   0.54820   0.55705
 Alpha virt. eigenvalues --    0.56778   0.58109   0.60214   0.61654   0.62050
 Alpha virt. eigenvalues --    0.64133   0.65714   0.68662   0.70198   0.76578
 Alpha virt. eigenvalues --    0.78366   0.79049   0.82585   0.85336   0.86642
 Alpha virt. eigenvalues --    0.90907   0.91804   0.96164   0.97284   1.02040
 Alpha virt. eigenvalues --    1.04500   1.06831   1.09118   1.12425   1.13108
 Alpha virt. eigenvalues --    1.15147   1.17163   1.17756   1.19923   1.21449
 Alpha virt. eigenvalues --    1.26370   1.27443   1.29258   1.31003   1.34798
 Alpha virt. eigenvalues --    1.36219   1.36657   1.39712   1.40853   1.44001
 Alpha virt. eigenvalues --    1.45559   1.48114   1.50310   1.50456   1.55294
 Alpha virt. eigenvalues --    1.57438   1.60229   1.66256   1.72868   1.78213
 Alpha virt. eigenvalues --    1.92264   2.07151   2.12777   2.27675   2.33693
 Alpha virt. eigenvalues --    2.40262   2.43238   2.48311   2.53346   2.57224
 Alpha virt. eigenvalues --    2.60459   2.67971   2.78923   2.83461   2.84521
 Alpha virt. eigenvalues --    2.86277   2.94645   2.96147   2.98498   3.02340
 Alpha virt. eigenvalues --    3.03416   3.07308   3.09366   3.10469   3.11451
 Alpha virt. eigenvalues --    3.15840   3.17602   3.19395   3.22998   3.24832
 Alpha virt. eigenvalues --    3.29228   3.33701   3.35529   3.36795   3.39966
 Alpha virt. eigenvalues --    3.43091   3.49108   3.49983   3.54505   3.55468
 Alpha virt. eigenvalues --    3.58727   3.61984   3.63871   3.67124   3.75638
 Alpha virt. eigenvalues --    3.80120   3.85119   3.89275   3.91876   3.92886
 Alpha virt. eigenvalues --    3.98474   3.99459   4.02887   4.06909   4.07198
 Alpha virt. eigenvalues --    4.14121   4.16185   4.18134   4.19136   4.21686
 Alpha virt. eigenvalues --    4.24573   4.25463   4.28044   4.39628   4.43701
 Alpha virt. eigenvalues --    4.45601   4.48732   4.55280   4.56397   4.61759
 Alpha virt. eigenvalues --    4.64707   5.10947   5.15291   5.18583   5.25419
 Alpha virt. eigenvalues --    5.29338   5.42259   5.50149   5.50751   5.56257
 Alpha virt. eigenvalues --    5.59061   5.61950   5.67206   5.82374   5.90049
 Alpha virt. eigenvalues --    6.28659   6.45210   6.81255   7.11534   7.19803
 Alpha virt. eigenvalues --    7.28279   7.69720   7.71780  24.35253  24.46509
 Alpha virt. eigenvalues --   24.48240  50.16806
  Beta  occ. eigenvalues --  -19.65091 -10.59183 -10.56846 -10.53053  -1.18139
  Beta  occ. eigenvalues --   -0.87072  -0.74184  -0.68844  -0.56867  -0.55579
  Beta  occ. eigenvalues --   -0.54203  -0.45910  -0.45233  -0.43560  -0.40394
  Beta  occ. eigenvalues --   -0.37608
  Beta virt. eigenvalues --   -0.01114   0.01697   0.03185   0.04051   0.05312
  Beta virt. eigenvalues --    0.05932   0.07079   0.08122   0.09220   0.09588
  Beta virt. eigenvalues --    0.11296   0.13468   0.13975   0.18425   0.18999
  Beta virt. eigenvalues --    0.20187   0.22300   0.22805   0.24069   0.25086
  Beta virt. eigenvalues --    0.25556   0.27858   0.28492   0.28841   0.32393
  Beta virt. eigenvalues --    0.34839   0.37151   0.41560   0.44771   0.47707
  Beta virt. eigenvalues --    0.48397   0.50365   0.53018   0.53907   0.54835
  Beta virt. eigenvalues --    0.55696   0.57055   0.58051   0.60534   0.61378
  Beta virt. eigenvalues --    0.62881   0.64581   0.65734   0.68733   0.70694
  Beta virt. eigenvalues --    0.76575   0.77752   0.79321   0.82869   0.85240
  Beta virt. eigenvalues --    0.86580   0.90948   0.91730   0.96384   0.96814
  Beta virt. eigenvalues --    1.01531   1.04576   1.07118   1.09096   1.12426
  Beta virt. eigenvalues --    1.13138   1.15246   1.17198   1.17710   1.19985
  Beta virt. eigenvalues --    1.21564   1.26426   1.27960   1.29451   1.31161
  Beta virt. eigenvalues --    1.34863   1.36449   1.36821   1.40182   1.40944
  Beta virt. eigenvalues --    1.44019   1.45349   1.48101   1.50295   1.51250
  Beta virt. eigenvalues --    1.55752   1.57899   1.60285   1.66525   1.73118
  Beta virt. eigenvalues --    1.78454   1.93525   2.07407   2.13130   2.28492
  Beta virt. eigenvalues --    2.34504   2.40406   2.43438   2.48717   2.54371
  Beta virt. eigenvalues --    2.57724   2.60877   2.68748   2.79715   2.84344
  Beta virt. eigenvalues --    2.85679   2.89720   2.95763   2.99791   3.02372
  Beta virt. eigenvalues --    3.04568   3.04616   3.09231   3.09877   3.12889
  Beta virt. eigenvalues --    3.13166   3.17179   3.19427   3.21315   3.26138
  Beta virt. eigenvalues --    3.27814   3.31306   3.35559   3.38837   3.39176
  Beta virt. eigenvalues --    3.41527   3.45598   3.50897   3.51812   3.55098
  Beta virt. eigenvalues --    3.55782   3.59349   3.62720   3.66400   3.68632
  Beta virt. eigenvalues --    3.77377   3.80133   3.86482   3.90978   3.92470
  Beta virt. eigenvalues --    3.94540   3.98668   4.01362   4.03426   4.07118
  Beta virt. eigenvalues --    4.08265   4.16433   4.17909   4.19778   4.21760
  Beta virt. eigenvalues --    4.22115   4.25020   4.26281   4.29258   4.40095
  Beta virt. eigenvalues --    4.44344   4.45841   4.48803   4.55379   4.56451
  Beta virt. eigenvalues --    4.62851   4.66064   5.11361   5.18366   5.21528
  Beta virt. eigenvalues --    5.26453   5.30817   5.43241   5.51163   5.53217
  Beta virt. eigenvalues --    5.57656   5.60255   5.62503   5.68077   5.82835
  Beta virt. eigenvalues --    5.90926   6.29083   6.45450   6.82019   7.12565
  Beta virt. eigenvalues --    7.20966   7.29348   7.70151   7.71711  24.35250
  Beta virt. eigenvalues --   24.47664  24.48373  50.16500
          Condensed to atoms (all electrons):
               1          2          3          4          5          6
     1  O    8.196860   0.117882  -0.097547   0.057934  -0.049447  -0.044565
     2  C    0.117882   5.058626   0.308870  -0.085955   0.447534   0.436640
     3  C   -0.097547   0.308870   5.075641  -0.008052  -0.048084  -0.037824
     4  C    0.057934  -0.085955  -0.008052   5.467663  -0.003120   0.009465
     5  H   -0.049447   0.447534  -0.048084  -0.003120   0.566357  -0.052017
     6  H   -0.044565   0.436640  -0.037824   0.009465  -0.052017   0.547246
     7  H   -0.002624  -0.029033   0.404219  -0.000092  -0.007805   0.006245
     8  H   -0.002590  -0.028819   0.405026  -0.000929   0.006568  -0.008164
     9  H    0.011666  -0.034592   0.414595   0.001330  -0.003871  -0.003619
    10  H   -0.051056   0.005093   0.001509   0.440091   0.000181  -0.000047
    11  H   -0.044852   0.003734  -0.006813   0.418596   0.006376  -0.003380
               7          8          9         10         11
     1  O   -0.002624  -0.002590   0.011666  -0.051056  -0.044852
     2  C   -0.029033  -0.028819  -0.034592   0.005093   0.003734
     3  C    0.404219   0.405026   0.414595   0.001509  -0.006813
     4  C   -0.000092  -0.000929   0.001330   0.440091   0.418596
     5  H   -0.007805   0.006568  -0.003871   0.000181   0.006376
     6  H    0.006245  -0.008164  -0.003619  -0.000047  -0.003380
     7  H    0.543846  -0.029941  -0.026691  -0.000008   0.000026
     8  H   -0.029941   0.541130  -0.026558   0.000003   0.000013
     9  H   -0.026691  -0.026558   0.539869   0.000014   0.000017
    10  H   -0.000008   0.000003   0.000014   0.475965  -0.030138
    11  H    0.000026   0.000013   0.000017  -0.030138   0.516012
          Atomic-Atomic Spin Densities.
               1          2          3          4          5          6
     1  O    0.301089   0.014828   0.000277  -0.239464  -0.007730  -0.007754
     2  C    0.014828   0.028805  -0.021181  -0.009131   0.006763  -0.001041
     3  C    0.000277  -0.021181   0.016230   0.004646  -0.005149   0.003119
     4  C   -0.239464  -0.009131   0.004646   1.234275   0.000339   0.015422
     5  H   -0.007730   0.006763  -0.005149   0.000339   0.009001  -0.004084
     6  H   -0.007754  -0.001041   0.003119   0.015422  -0.004084  -0.002511
     7  H   -0.000829   0.004254  -0.003634   0.000002   0.000299  -0.000313
     8  H    0.000107   0.000447  -0.000473  -0.000125   0.000086  -0.000107
     9  H   -0.000003  -0.001003   0.000966  -0.000086  -0.000066   0.000047
    10  H    0.001272   0.000135  -0.000006  -0.003512   0.000291  -0.000145
    11  H   -0.002932   0.003897  -0.002765  -0.014662   0.003388  -0.001738
               7          8          9         10         11
     1  O   -0.000829   0.000107  -0.000003   0.001272  -0.002932
     2  C    0.004254   0.000447  -0.001003   0.000135   0.003897
     3  C   -0.003634  -0.000473   0.000966  -0.000006  -0.002765
     4  C    0.000002  -0.000125  -0.000086  -0.003512  -0.014662
     5  H    0.000299   0.000086  -0.000066   0.000291   0.003388
     6  H   -0.000313  -0.000107   0.000047  -0.000145  -0.001738
     7  H   -0.000091  -0.000051   0.000024   0.000008   0.000046
     8  H   -0.000051  -0.000028   0.000043   0.000006   0.000005
     9  H    0.000024   0.000043  -0.000257  -0.000000  -0.000005
    10  H    0.000008   0.000006  -0.000000  -0.037394   0.005499
    11  H    0.000046   0.000005  -0.000005   0.005499  -0.025572
 Mulliken charges and spin densities:
               1          2
     1  O   -0.091661   0.058861
     2  C   -0.199980   0.026771
     3  C   -0.411539  -0.007969
     4  C   -0.296932   0.987704
     5  H    0.137328   0.003137
     6  H    0.150020   0.000896
     7  H    0.141858  -0.000286
     8  H    0.144262  -0.000089
     9  H    0.127840  -0.000340
    10  H    0.158395  -0.033847
    11  H    0.140410  -0.034839
 Sum of Mulliken charges =  -0.00000   1.00000
 Mulliken charges and spin densities with hydrogens summed into heavy atoms:
               1          2
     1  O   -0.091661   0.058861
     2  C    0.087368   0.030804
     3  C    0.002420  -0.008683
     4  C    0.001873   0.919018
 APT charges:
               1
     1  O   -0.032564
     2  C   -0.582084
     3  C   -1.135775
     4  C   -1.007281
     5  H    0.338861
     6  H    0.359679
     7  H    0.325621
     8  H    0.334678
     9  H    0.470788
    10  H    0.567815
    11  H    0.360262
 Sum of APT charges =  -0.00000
 APT charges with hydrogens summed into heavy atoms:
               1
     1  O   -0.032564
     2  C    0.116457
     3  C   -0.004689
     4  C   -0.079204
 Electronic spatial extent (au):  <R**2>=            345.4395
 Charge=              0.0000 electrons
 Dipole moment (field-independent basis, Debye):
    X=             -0.8206    Y=              1.0798    Z=             -0.3618  Tot=              1.4037
 Quadrupole moment (field-independent basis, Debye-Ang):
   XX=            -24.7563   YY=            -26.1985   ZZ=            -27.1977
   XY=             -0.2550   XZ=             -0.9588   YZ=             -0.3393
 Traceless Quadrupole moment (field-independent basis, Debye-Ang):
   XX=              1.2945   YY=             -0.1477   ZZ=             -1.1468
   XY=             -0.2550   XZ=             -0.9588   YZ=             -0.3393
 Octapole moment (field-independent basis, Debye-Ang**2):
  XXX=              2.2268  YYY=             -0.9096  ZZZ=             -0.5495  XYY=              0.5514
  XXY=             -2.2026  XXZ=             -2.0493  XZZ=             -3.1779  YZZ=             -0.7339
  YYZ=             -0.5116  XYZ=             -0.7471
 Hexadecapole moment (field-independent basis, Debye-Ang**3):
 XXXX=           -357.7958 YYYY=            -71.4749 ZZZZ=            -45.4978 XXXY=            -11.4017
 XXXZ=             -5.6779 YYYX=             -1.7038 YYYZ=             -1.2711 ZZZX=             -1.2824
 ZZZY=             -0.0698 XXYY=            -68.0466 XXZZ=            -75.2702 YYZZ=            -18.3427
 XXYZ=             -1.7207 YYXZ=             -1.4798 ZZXY=              0.4377
 N-N= 1.266183142314D+02 E-N=-7.049947846834D+02  KE= 1.929289442537D+02
  Exact polarizability:   0.000   0.000   0.000   0.000   0.000   0.000
 Approx polarizability:  49.962  -0.259  46.074  -0.162   0.114  44.502
                          Isotropic Fermi Contact Couplings
        Atom                 a.u.       MegaHertz       Gauss      10(-4) cm-1
     1  O(17)              0.03586     -21.74069      -7.75762      -7.25191
     2  C(13)             -0.00245      -2.75528      -0.98315      -0.91906
     3  C(13)             -0.00133      -1.49445      -0.53326      -0.49849
     4  C(13)              0.18701     210.23215      75.01606      70.12590
     5  H(1)               0.00181       8.09246       2.88759       2.69935
     6  H(1)               0.00167       7.47354       2.66675       2.49291
     7  H(1)               0.00007       0.29957       0.10689       0.09993
     8  H(1)              -0.00004      -0.15894      -0.05671      -0.05302
     9  H(1)              -0.00028      -1.24866      -0.44555      -0.41651
    10  H(1)              -0.01075     -48.06882     -17.15215     -16.03403
    11  H(1)              -0.00934     -41.72880     -14.88987     -13.91923
 --------------------------------------------------------
       Center         ----  Spin Dipole Couplings  ----
                      3XX-RR        3YY-RR        3ZZ-RR
 --------------------------------------------------------
     1   Atom       -0.453391     -0.429526      0.882918
     2   Atom        0.014682     -0.002912     -0.011770
     3   Atom        0.006292     -0.003971     -0.002321
     4   Atom       -0.492064     -0.437997      0.930060
     5   Atom        0.005334     -0.000387     -0.004947
     6   Atom        0.008616     -0.001948     -0.006668
     7   Atom        0.005247     -0.002979     -0.002268
     8   Atom        0.005397     -0.002778     -0.002619
     9   Atom        0.003486     -0.001772     -0.001714
    10   Atom        0.001699      0.003311     -0.005009
    11   Atom       -0.063065      0.055633      0.007433
 --------------------------------------------------------
                        XY            XZ            YZ
 --------------------------------------------------------
     1   Atom       -0.020203      0.124854      0.148011
     2   Atom       -0.010441      0.003484     -0.001412
     3   Atom       -0.000675      0.000444      0.000347
     4   Atom        0.011850      0.093348      0.266928
     5   Atom       -0.008556      0.005479     -0.003676
     6   Atom       -0.008473     -0.005368      0.003830
     7   Atom        0.001371      0.002543      0.000485
     8   Atom        0.001925     -0.001718     -0.000265
     9   Atom       -0.000889      0.000193      0.000014
    10   Atom       -0.066306     -0.000846      0.013226
    11   Atom        0.016311     -0.003304     -0.025290
 --------------------------------------------------------


 ---------------------------------------------------------------------------------
              Anisotropic Spin Dipole Couplings in Principal Axis System
 ---------------------------------------------------------------------------------

       Atom             a.u.   MegaHertz   Gauss  10(-4) cm-1        Axes

              Baa    -0.4901    35.465    12.655    11.830  0.7910  0.5964 -0.1362
     1 O(17)  Bbb    -0.4202    30.403    10.849    10.141 -0.6053  0.7954 -0.0323
              Bcc     0.9103   -65.868   -23.504   -21.971  0.0891  0.1080  0.9901
 
              Baa    -0.0122    -1.640    -0.585    -0.547 -0.1241  0.0114  0.9922
     2 C(13)  Bbb    -0.0078    -1.041    -0.372    -0.347  0.4161  0.9084  0.0416
              Bcc     0.0200     2.681     0.957     0.894  0.9008 -0.4180  0.1174
 
              Baa    -0.0041    -0.550    -0.196    -0.183  0.0723  0.9752 -0.2090
     3 C(13)  Bbb    -0.0023    -0.303    -0.108    -0.101 -0.0340  0.2118  0.9767
              Bcc     0.0064     0.853     0.304     0.285  0.9968 -0.0635  0.0484
 
              Baa    -0.5006   -67.173   -23.969   -22.406  0.9086  0.3958 -0.1331
     4 C(13)  Bbb    -0.4857   -65.174   -23.256   -21.740 -0.4128  0.8996 -0.1424
              Bcc     0.9863   132.347    47.225    44.146  0.0634  0.1843  0.9808
 
              Baa    -0.0073    -3.906    -1.394    -1.303 -0.4100 -0.0225  0.9118
     5 H(1)   Bbb    -0.0065    -3.465    -1.236    -1.156  0.4926  0.8359  0.2422
              Bcc     0.0138     7.370     2.630     2.458  0.7676 -0.5484  0.3316
 
              Baa    -0.0089    -4.725    -1.686    -1.576  0.0863 -0.4001  0.9124
     6 H(1)   Bbb    -0.0064    -3.427    -1.223    -1.143  0.5465  0.7847  0.2924
              Bcc     0.0153     8.151     2.909     2.719  0.8330 -0.4734 -0.2864
 
              Baa    -0.0032    -1.723    -0.615    -0.575 -0.0462  0.9355 -0.3504
     7 H(1)   Bbb    -0.0030    -1.615    -0.576    -0.539 -0.3263  0.3174  0.8904
              Bcc     0.0063     3.338     1.191     1.113  0.9441  0.1555  0.2905
 
              Baa    -0.0033    -1.736    -0.620    -0.579 -0.2700  0.8938 -0.3581
     8 H(1)   Bbb    -0.0029    -1.556    -0.555    -0.519  0.0972  0.3954  0.9134
              Bcc     0.0062     3.292     1.175     1.098  0.9579  0.2118 -0.1937
 
              Baa    -0.0019    -1.029    -0.367    -0.343  0.1656  0.9631 -0.2123
     9 H(1)   Bbb    -0.0017    -0.913    -0.326    -0.304  0.0006  0.2152  0.9766
              Bcc     0.0036     1.941     0.693     0.648  0.9862 -0.1619  0.0351
 
              Baa    -0.0651   -34.724   -12.390   -11.583  0.6962  0.7030 -0.1450
    10 H(1)   Bbb    -0.0051    -2.709    -0.967    -0.904  0.1965  0.0076  0.9805
              Bcc     0.0702    37.433    13.357    12.486 -0.6904  0.7111  0.1329
 
              Baa    -0.0653   -34.823   -12.426   -11.616  0.9910 -0.1340 -0.0016
    11 H(1)   Bbb    -0.0032    -1.719    -0.613    -0.573  0.0531  0.3818  0.9227
              Bcc     0.0685    36.542    13.039    12.189  0.1231  0.9145 -0.3855
 

 ---------------------------------------------------------------------------------

 No NMR shielding tensors so no spin-rotation constants.
 Leave Link  601 at Wed Mar 13 04:15:33 2019, MaxMem=   671088640 cpu:               7.0 elap:               0.4
 (Enter /shared/centos7/gaussian/g16/l701.exe)
 SCFChk:  SCF convergence  7.90D-09 required  1.00D-08
 ... and contract with generalized density number  0.
 Compute integral second derivatives.
 Entering OneElI...
 Calculate overlap and kinetic energy integrals
    NBasis = 219  MinDer = 2  MaxDer = 2
 Requested accuracy = 0.1000D-12
 PrmmSu-InSpLW:  IPartL=    0 NPrtUS=   20 NPrtUL=    1 DoSpLW=F IThBeg=    0 IThEnd=   19 NThAct=   20.
 PrsmSu:  NPrtUS=  20 ThrOK=T IAlg=1 NPAlg=1 LenDen=           0 ISkipM=0 DoSpLW=F IThBeg=    0 IThEnd=   19.
 Prism:   IPart=     0 DynPar=F LinDyn=F Incr=           1.
 PRISM was handed    33492111 working-precision words and  2277 shell-pairs
 PRISM was handed    33492111 working-precision words and  2277 shell-pairs
 PRISM was handed    33492111 working-precision words and  2277 shell-pairs
 PRISM was handed    33492111 working-precision words and  2277 shell-pairs
 PRISM was handed    33492111 working-precision words and  2277 shell-pairs
 PRISM was handed    33492111 working-precision words and  2277 shell-pairs
 PRISM was handed    33492111 working-precision words and  2277 shell-pairs
 PRISM was handed    33492111 working-precision words and  2277 shell-pairs
 PRISM was handed    33492111 working-precision words and  2277 shell-pairs
 PRISM was handed    33492111 working-precision words and  2277 shell-pairs
 PRISM was handed    33492111 working-precision words and  2277 shell-pairs
 PRISM was handed    33492111 working-precision words and  2277 shell-pairs
 PRISM was handed    33492111 working-precision words and  2277 shell-pairs
 PRISM was handed    33492111 working-precision words and  2277 shell-pairs
 PRISM was handed    33492111 working-precision words and  2277 shell-pairs
 PRISM was handed    33492111 working-precision words and  2277 shell-pairs
 PRISM was handed    33492111 working-precision words and  2277 shell-pairs
 PRISM was handed    33492111 working-precision words and  2277 shell-pairs
 PRISM was handed    33492111 working-precision words and  2277 shell-pairs
 PRISM was handed    33492111 working-precision words and  2277 shell-pairs
 IPart=  0 NShTot=         145 NBatch=          52 AvBLen=         2.8
 IPart= 15 NShTot=         100 NBatch=          28 AvBLen=         3.6
 IPart=  6 NShTot=         121 NBatch=          33 AvBLen=         3.7
 IPart=  3 NShTot=         135 NBatch=          44 AvBLen=         3.1
 IPart=  4 NShTot=         129 NBatch=          39 AvBLen=         3.3
 IPart=  5 NShTot=         126 NBatch=          36 AvBLen=         3.5
 IPart=  7 NShTot=         119 NBatch=          31 AvBLen=         3.8
 IPart=  9 NShTot=         112 NBatch=          29 AvBLen=         3.9
 IPart= 10 NShTot=         109 NBatch=          28 AvBLen=         3.9
 IPart=  2 NShTot=         138 NBatch=          47 AvBLen=         2.9
 IPart=  1 NShTot=         142 NBatch=          49 AvBLen=         2.9
 IPart=  8 NShTot=         114 NBatch=          31 AvBLen=         3.7
 IPart= 19 NShTot=          93 NBatch=          26 AvBLen=         3.6
 IPart= 16 NShTot=          94 NBatch=          26 AvBLen=         3.6
 IPart= 14 NShTot=         100 NBatch=          28 AvBLen=         3.6
 IPart= 17 NShTot=          94 NBatch=          26 AvBLen=         3.6
 IPart= 18 NShTot=          93 NBatch=          26 AvBLen=         3.6
 IPart= 13 NShTot=         102 NBatch=          28 AvBLen=         3.6
 IPart= 11 NShTot=         108 NBatch=          28 AvBLen=         3.9
 IPart= 12 NShTot=         103 NBatch=          28 AvBLen=         3.7
 PrSmSu:  NxtVal=             21.
 Entering OneElI...
 Calculate potential energy integrals
    NBasis = 219  MinDer = 2  MaxDer = 2
 Requested accuracy = 0.1000D-12
 PrmmSu-InSpLW:  IPartL=    0 NPrtUS=   20 NPrtUL=    1 DoSpLW=F IThBeg=    0 IThEnd=   19 NThAct=   20.
 PrsmSu:  NPrtUS=  20 ThrOK=T IAlg=1 NPAlg=1 LenDen=           0 ISkipM=0 DoSpLW=F IThBeg=    0 IThEnd=   19.
 Prism:   IPart=     0 DynPar=F LinDyn=F Incr=          12.
 PRISM was handed    33499205 working-precision words and  2195 shell-pairs
 PRISM was handed    33499205 working-precision words and  2195 shell-pairs
 PRISM was handed    33499205 working-precision words and  2195 shell-pairs
 PRISM was handed    33499205 working-precision words and  2195 shell-pairs
 PRISM was handed    33499205 working-precision words and  2195 shell-pairs
 PRISM was handed    33499205 working-precision words and  2195 shell-pairs
 PRISM was handed    33499205 working-precision words and  2195 shell-pairs
 PRISM was handed    33499205 working-precision words and  2195 shell-pairs
 PRISM was handed    33499205 working-precision words and  2195 shell-pairs
 PRISM was handed    33499205 working-precision words and  2195 shell-pairs
 PRISM was handed    33499205 working-precision words and  2195 shell-pairs
 PRISM was handed    33499205 working-precision words and  2195 shell-pairs
 PRISM was handed    33499205 working-precision words and  2195 shell-pairs
 PRISM was handed    33499205 working-precision words and  2195 shell-pairs
 PRISM was handed    33499205 working-precision words and  2195 shell-pairs
 PRISM was handed    33499205 working-precision words and  2195 shell-pairs
 PRISM was handed    33499205 working-precision words and  2195 shell-pairs
 PRISM was handed    33499205 working-precision words and  2195 shell-pairs
 PRISM was handed    33499205 working-precision words and  2195 shell-pairs
 PRISM was handed    33499205 working-precision words and  2195 shell-pairs
 IPart= 15 NShTot=        1067 NBatch=          97 AvBLen=        11.0
 IPart=  0 NShTot=        1584 NBatch=         144 AvBLen=        11.0
 IPart=  3 NShTot=        1408 NBatch=         128 AvBLen=        11.0
 IPart=  4 NShTot=        1342 NBatch=         122 AvBLen=        11.0
 IPart=  7 NShTot=        1243 NBatch=         113 AvBLen=        11.0
 IPart=  2 NShTot=        1463 NBatch=         133 AvBLen=        11.0
 IPart=  6 NShTot=        1265 NBatch=         115 AvBLen=        11.0
 IPart=  1 NShTot=        1507 NBatch=         137 AvBLen=        11.0
 IPart=  8 NShTot=        1210 NBatch=         110 AvBLen=        11.0
 IPart= 16 NShTot=        1045 NBatch=          95 AvBLen=        11.0
 IPart= 18 NShTot=        1001 NBatch=          91 AvBLen=        11.0
 IPart= 19 NShTot=         990 NBatch=          90 AvBLen=        11.0
 IPart= 17 NShTot=        1023 NBatch=          93 AvBLen=        11.0
 IPart=  5 NShTot=        1331 NBatch=         121 AvBLen=        11.0
 IPart= 11 NShTot=        1122 NBatch=         102 AvBLen=        11.0
 IPart= 10 NShTot=        1122 NBatch=         102 AvBLen=        11.0
 IPart= 14 NShTot=        1078 NBatch=          98 AvBLen=        11.0
 IPart= 12 NShTot=        1111 NBatch=         101 AvBLen=        11.0
 IPart=  9 NShTot=        1133 NBatch=         103 AvBLen=        11.0
 IPart= 13 NShTot=        1100 NBatch=         100 AvBLen=        11.0
 PrSmSu:  NxtVal=            241.
 Polarizability after L701:
                1             2             3 
      1  0.000000D+00
      2  0.000000D+00  0.000000D+00
      3  0.000000D+00  0.000000D+00  0.000000D+00
 Dipole Derivatives after L701:
                 1             2             3             4             5 
      1   0.131680D+00  0.114707D+00 -0.645979D-02 -0.684573D-01  0.238903D+00
      2   0.386234D-02 -0.742754D-01 -0.113054D-01 -0.330562D-01 -0.839248D+00
      3  -0.127372D-01 -0.147876D-01 -0.155095D+00  0.453251D-01  0.106374D-02
                 6             7             8             9            10 
      1   0.483128D-01 -0.152560D+01 -0.225168D+00 -0.334698D-01 -0.176597D+01
      2  -0.383122D-02  0.134618D+00 -0.876002D+00  0.213711D-02  0.167065D+00
      3  -0.838545D+00 -0.567973D-02 -0.261203D-02 -0.100573D+01  0.508235D-01
                11            12            13            14            15 
      1  -0.132796D+00  0.297266D+00  0.141128D+00 -0.909796D-01  0.732115D-01
      2  -0.104647D+01  0.131886D+00  0.297167D-01  0.465330D+00 -0.338681D+00
      3   0.176646D+00 -0.209408D+00 -0.376386D-01 -0.191978D+00  0.410127D+00
                16            17            18            19            20 
      1   0.161330D+00 -0.888744D-01 -0.110681D+00  0.166627D+00  0.391075D+00
      2   0.552382D-03  0.394417D+00  0.350320D+00  0.264325D-01  0.294201D+00
      3   0.191779D-01  0.199149D+00  0.523291D+00  0.161168D-01  0.225529D+00
                21            22            23            24            25 
      1   0.635471D+00  0.208789D+00  0.500959D+00 -0.585025D+00  0.101253D+01
      2   0.285690D+00  0.492368D-01  0.379166D+00 -0.302768D+00 -0.205644D+00
      3   0.516034D+00 -0.310704D-01 -0.230745D+00  0.416078D+00  0.220891D-02
                26            27            28            29            30 
      1  -0.727427D+00 -0.287957D-01  0.118581D+01 -0.912228D+00 -0.726157D-01
      2   0.297425D+00  0.877961D-02 -0.255725D+00  0.413589D+00  0.143802D-01
      3   0.216697D-03  0.102405D+00 -0.213014D-01  0.145891D-01  0.104045D+00
                31            32            33 
      1   0.352127D+00  0.931830D+00 -0.217214D+00
      2   0.829415D-01  0.591864D+00 -0.136606D+00
      3  -0.252251D-01 -0.177071D+00  0.136797D+00
 Hessian after L701:
                1             2             3             4             5 
      1  0.318968D+00
      2  0.910542D+00  0.964634D+01
      3  0.101590D+00 -0.116193D+00  0.131142D+02
      4 -0.188782D+01 -0.343323D+01 -0.919920D-01  0.995265D+01
      5 -0.333738D+01 -0.340159D+01  0.127883D+00  0.164575D+01  0.129722D+02
      6 -0.108695D+00  0.116031D+00 -0.646126D+01  0.632836D-02 -0.167724D+00
      7  0.899889D+00  0.147867D-02 -0.194470D-03 -0.142790D+01  0.177053D+01
      8 -0.931368D-01 -0.261279D+00 -0.106138D-02  0.179936D+01 -0.430603D+01
      9  0.113604D-01  0.328633D-02 -0.241407D+00  0.264106D+00  0.123660D+00
     10  0.318868D+00  0.252735D+01  0.431322D-01  0.363586D+00 -0.853914D-01
     11  0.254115D+01 -0.622557D+01  0.131052D+00 -0.214007D+00 -0.173500D+00
     12  0.411648D-01  0.107903D+00 -0.695983D+01 -0.339871D-01  0.785884D-02
     13 -0.222450D-01  0.990052D-01  0.402720D-01 -0.362466D+01  0.979446D-01
     14  0.642813D-01  0.231738D-01 -0.205234D+00  0.150379D+00 -0.232754D+01
     15  0.571442D-01 -0.188165D+00  0.267831D+00 -0.143756D+00 -0.130182D+01
     16 -0.288000D-01  0.790492D-01 -0.458932D-01 -0.362329D+01 -0.538215D-02
     17  0.485213D-01 -0.891499D-02  0.170935D+00  0.258805D-01 -0.271979D+01
     18 -0.715418D-01  0.164713D+00  0.297310D+00  0.316268D-01  0.122651D+01
     19  0.894527D-01  0.183640D-01  0.306823D-01  0.384521D-01 -0.418624D-01
     20  0.421810D-01 -0.393139D-01  0.149178D-01  0.194305D-01 -0.290102D-01
     21  0.868664D-01  0.174852D-01 -0.214624D-01  0.406132D-01  0.101902D-02
     22  0.977666D-01  0.245773D-01 -0.135354D-01  0.427074D-01 -0.442607D-01
     23  0.570070D-01 -0.341960D-01 -0.122524D-01  0.266802D-01 -0.294071D-01
     24 -0.672650D-01 -0.174722D-01 -0.365556D-01 -0.391567D-01 -0.159226D-01
     25  0.177776D+00 -0.811962D-01  0.167482D-02  0.144754D-01  0.325793D-01
     26 -0.959785D-01 -0.260003D-01 -0.925776D-03 -0.135881D-01  0.385675D-01
     27  0.251860D-03 -0.487959D-03 -0.543806D-01 -0.667420D-03  0.483146D-02
     28  0.715475D-01 -0.125661D+00 -0.935138D-02  0.101082D+00 -0.436500D-01
     29 -0.189702D+00  0.105912D+00  0.105277D-01 -0.720430D-01 -0.184064D-01
     30 -0.848740D-02  0.977378D-02  0.138879D-01 -0.808218D-02  0.315713D-02
     31 -0.354006D-01 -0.202819D-01 -0.563848D-01  0.507143D-01  0.111224D-01
     32  0.525172D-01  0.221437D+00 -0.119648D+00  0.653778D-01 -0.550143D-02
     33 -0.423887D-01 -0.968737D-01  0.816242D-01 -0.250333D-01 -0.944995D-02
                6             7             8             9            10 
      6  0.158432D+02
      7  0.260974D+00  0.834168D+01
      8  0.123975D+00 -0.890306D+00  0.116048D+02
      9 -0.505848D+01 -0.185621D+00 -0.670088D-01  0.118490D+02
     10 -0.303488D-01  0.214081D+00  0.168549D-01  0.275592D-01  0.388313D+01
     11  0.133984D-01  0.235680D-01 -0.123808D+00  0.377956D-02 -0.165017D+01
     12 -0.163454D+00  0.452879D-01  0.194566D-02 -0.117519D+00  0.275778D+00
     13 -0.928717D-01  0.201008D-01 -0.302205D-01  0.256331D-01  0.342024D-02
     14 -0.133548D+01 -0.182415D-01  0.257473D-01 -0.830687D-03 -0.531987D-01
     15 -0.231969D+01  0.182890D-02 -0.142605D-01  0.616597D-01  0.197902D-01
     16 -0.165349D-01  0.107738D-01 -0.218577D-01 -0.292196D-01  0.276049D-01
     17  0.126533D+01 -0.724236D-02  0.196373D-01  0.111733D-02 -0.559405D-01
     18 -0.187106D+01  0.217505D-02  0.154804D-01  0.531632D-01 -0.576765D-01
     19 -0.217861D-01 -0.319046D+01  0.139005D+00  0.241875D+00  0.205164D-01
     20  0.445103D-02  0.548894D-01 -0.253782D+01  0.101618D+01  0.137150D-01
     21  0.596116D-01  0.107567D+00  0.100955D+01 -0.154346D+01  0.158388D-01
     22  0.133175D-01 -0.316145D+01  0.248495D+00 -0.304309D+00  0.182034D-01
     23 -0.156901D-01  0.145267D+00 -0.220594D+01 -0.111210D+01  0.139697D-01
     24  0.542254D-01 -0.184667D+00 -0.110030D+01 -0.189898D+01 -0.129162D-01
     25  0.240579D-02 -0.174079D+01 -0.115857D+01 -0.497556D-01  0.228404D-01
     26  0.324612D-02 -0.107917D+01 -0.220983D+01  0.349057D-01 -0.936295D-02
     27 -0.932629D-02 -0.433414D-01  0.324479D-01 -0.308540D+01  0.674371D-04
     28 -0.560462D-02  0.332802D-01 -0.109979D-01 -0.345036D-03 -0.170724D+01
     29  0.302193D-02 -0.187491D-01 -0.301647D-02  0.144888D-03 -0.121756D+01
     30 -0.354217D-01 -0.102578D-02  0.252471D-03 -0.117149D-01 -0.103503D+00
     31 -0.718455D-02  0.790477D-03  0.137196D-02 -0.128417D-02 -0.316501D+01
     32 -0.105595D-01  0.179703D-01 -0.244517D-02 -0.314148D-02  0.499727D+00
     33 -0.383682D-01 -0.298267D-02 -0.101552D-02 -0.682629D-02 -0.177721D+00
               11            12            13            14            15 
     11  0.974735D+01
     12  0.450956D+00  0.136902D+02
     13 -0.410292D-01 -0.119436D-01  0.345250D+01
     14  0.214014D-01 -0.525067D-02 -0.132842D+00  0.211636D+01
     15 -0.335802D-01 -0.252386D-01  0.520397D-01  0.155592D+01  0.223027D+01
     16 -0.366015D-01 -0.144036D-01  0.134874D+00  0.603571D-03  0.199723D-01
     17 -0.145078D-01  0.143715D-01  0.191414D-02  0.142434D+00  0.220118D-01
     18  0.410590D-01 -0.267057D-01  0.502295D-02  0.314179D-01 -0.219149D+00
     19  0.707573D-02  0.774233D-02 -0.362850D-02 -0.218654D-01 -0.327771D-02
     20 -0.120416D-01  0.586431D-02 -0.186492D-01 -0.111935D-01 -0.702376D-02
     21  0.304810D-02 -0.463034D-02 -0.171702D-02  0.469250D-02  0.685108D-02
     22  0.669429D-02 -0.497007D-02 -0.516370D-03  0.369959D-01 -0.308679D-01
     23 -0.988161D-02 -0.274252D-02  0.287071D-01  0.345403D-01 -0.420177D-01
     24 -0.289645D-02 -0.842870D-02 -0.265851D-01 -0.438569D-01  0.178655D-01
     25 -0.877075D-02  0.255444D-02 -0.237798D-02  0.721381D-02 -0.711103D-02
     26 -0.465466D-02 -0.120237D-02 -0.583928D-02 -0.309106D-02  0.633251D-02
     27  0.462237D-03 -0.957333D-02  0.284269D-02 -0.382897D-03  0.269789D-02
     28 -0.131286D+01 -0.110020D+00  0.698003D-02 -0.152337D-01  0.111291D-01
     29 -0.221427D+01  0.854961D-01 -0.711575D-02  0.892953D-02 -0.888738D-02
     30  0.745553D-01 -0.324878D+01  0.138643D-02 -0.159708D-02 -0.207603D-02
     31  0.684942D+00 -0.197203D+00  0.355519D-01 -0.180919D-01  0.231084D-01
     32 -0.990518D+00 -0.665200D+00  0.812495D-02 -0.307629D-01  0.114952D-01
     33 -0.681834D+00 -0.312601D+01  0.592048D-02  0.604379D-03 -0.210176D-01
               16            17            18            19            20 
     16  0.349165D+01
     17 -0.105158D-01  0.257341D+01
     18  0.616695D-01 -0.151461D+01  0.171938D+01
     19 -0.459335D-02  0.280860D-01  0.332144D-01  0.294378D+01
     20  0.205744D-01  0.205565D-01  0.430865D-01 -0.179854D+00  0.255794D+01
     21  0.272706D-01  0.450060D-01  0.350854D-01 -0.336504D+00 -0.103699D+01
     22 -0.412495D-02 -0.229365D-01 -0.100747D-02  0.621500D-01  0.220787D-02
     23 -0.205940D-01 -0.119213D-01  0.285930D-02  0.485926D-02  0.775536D-01
     24 -0.171310D-02 -0.895496D-02  0.715118D-02 -0.400743D-02  0.324874D-01
     25 -0.175091D-02  0.677502D-02  0.936991D-02  0.350822D-01  0.370178D-01
     26 -0.440414D-02 -0.253414D-02 -0.742495D-02  0.428946D-01 -0.278968D-01
     27 -0.338631D-02  0.256444D-03  0.173951D-02  0.518471D-01 -0.723536D-01
     28  0.569929D-02 -0.114261D-01 -0.127652D-01  0.560152D-02  0.430687D-02
     29 -0.595749D-02  0.655994D-02  0.970802D-02 -0.272771D-02 -0.368907D-02
     30 -0.219391D-02  0.221016D-02 -0.233466D-03  0.605915D-03  0.118227D-03
     31 -0.803839D-02 -0.311576D-02 -0.877233D-04  0.364584D-02  0.418023D-02
     32  0.508550D-02 -0.493203D-02 -0.127972D-01  0.602499D-02  0.491482D-02
     33  0.443215D-02  0.232863D-02  0.331618D-02 -0.391384D-03 -0.740200D-03
               21            22            23            24            25 
     21  0.157777D+01
     22  0.163447D-01  0.289640D+01
     23 -0.150701D-02 -0.302578D+00  0.222308D+01
     24 -0.119385D+00  0.371793D+00  0.112033D+01  0.195788D+01
     25  0.309178D-01  0.396508D-01  0.368981D-01 -0.240752D-01  0.143952D+01
     26 -0.455667D-01  0.477405D-01 -0.453549D-01  0.397448D-01  0.112546D+01
     27  0.131717D-01 -0.437445D-01  0.659613D-01  0.257301D-01  0.368492D-01
     28  0.826833D-02  0.610046D-02  0.548616D-02 -0.729660D-02  0.896494D-02
     29 -0.480849D-02 -0.280357D-02 -0.427366D-02  0.416737D-02 -0.658337D-02
     30 -0.950640D-03 -0.104075D-02 -0.625986D-03 -0.390510D-03 -0.415702D-03
     31  0.453460D-02  0.311763D-02  0.429738D-02 -0.411064D-02  0.660164D-02
     32  0.807863D-02  0.586775D-02  0.580372D-02 -0.732900D-02  0.917964D-02
     33 -0.259923D-02 -0.198073D-02 -0.222027D-02  0.892011D-03 -0.241433D-02
               26            27            28            29            30 
     26  0.228339D+01
     27 -0.304287D-01  0.311736D+01
     28 -0.562412D-02 -0.254218D-03  0.141310D+01
     29  0.272518D-02  0.112797D-03  0.144869D+01  0.224460D+01
     30  0.263061D-03 -0.840745D-03  0.140687D+00 -0.125793D+00  0.322460D+01
     31 -0.212981D-02 -0.464483D-03  0.548840D-01  0.745501D-01 -0.179300D-01
     32 -0.531896D-02 -0.418912D-03  0.669694D-01 -0.125075D+00  0.376863D-01
     33  0.105629D-02 -0.117581D-02 -0.144466D-01  0.263104D-01  0.619127D-01
               31            32            33 
     31  0.305315D+01
     32 -0.736845D+00  0.932398D+00
     33  0.257006D+00  0.761834D+00  0.304825D+01
 Leave Link  701 at Wed Mar 13 04:15:34 2019, MaxMem=   671088640 cpu:               7.2 elap:               0.4
 (Enter /shared/centos7/gaussian/g16/l702.exe)
 L702 exits ... SP integral derivatives will be done elsewhere.
 Leave Link  702 at Wed Mar 13 04:15:34 2019, MaxMem=   671088640 cpu:               0.3 elap:               0.0
 (Enter /shared/centos7/gaussian/g16/l703.exe)
 Integral derivatives from FoFJK, PRISM(SPDF).
 Compute integral second derivatives, UseDBF=F ICtDFT=           0.
 ICntrl=    100147.
 Calling FoFJK, ICntrl=    100147 FMM=F ISym2X=0 I1Cent= 0 IOpClX= 1 NMat=1 NMatS=1 NMatT=0.
 FoFJK:  IHMeth= 1 ICntrl=  100147 DoSepK=F KAlg= 0 I1Cent=           0 FoldK=F
 IRaf=         0 NMat=       1 IRICut=       1 DoRegI=T DoRafI=F ISym2E= 0 IDoP0=0 IntGTp=1.
 FoFCou: FMM=F IPFlag=           0 FMFlag=      100000 FMFlg1=         800
         NFxFlg=           0 DoJE=F BraDBF=F KetDBF=F FulRan=T
         wScrn=  0.000000 ICntrl=    100147 IOpCl=  1 I1Cent=           0 NGrid=           0
         NMat0=    1 NMatS0=      1 NMatT0=    0 NMatD0=    1 NMtDS0=    0 NMtDT0=    0
 Symmetry not used in FoFCou.
 FoFCou:  KetSym=F NOpSet=  1 NOpAb=1 NOp=  1.
 FoFCou:  CnvScl= 1.00D+00 Thresh= 1.00D-08 IAcrcy=      12.
 PrismS was handed   670827073 working-precision words and  2229 shell-pairs
 FoFCou: LinMIO=F DoNuc=F BraDBF=F KetDBF=F HaveP=T PDBF=F HaveZ=T HaveW=F
         NIJTC =      15 NIJTAt=       0 NIJTCD=       0 NIJTT =      15
         IJTBeg=       1 IJTEnd=      15 KLTBeg=       1 KLTEnd=      15
         IPTBeg=       1 IPTEnd=      15 IPTBCv=       1 IPTECv=      15
         IZTBeg=       1 IZTEnd=      15 IZTBCv=       1 IZTECv=      15
         IWTBeg=      16 IWTEnd=      15 IWTBCv=      16 IWTECv=      15
         INTBeg=       1 INTEnd=       0 IFTBCv=       1 IFTECv=      15
 NCel replicated for PrismC:     1
 CoulSu-InSpLW:  IPartL=    0 NPrtUS=   20 NPrtUL=    1 DoSpLW=F IThBeg=    0 IThEnd=   19 NThAct=   20.
 CoulSu:  IncDef=  1024 NBBP=        2485335 NTPThr=   100 NPartT=   20 Incr=        1024 LDynOK=F GPUOK=T.
 CoulSu:  NPrtUS=  20 ThrOK=T IAlg=1 NPAlg=1 LenDen=           0 LWGrdD=           0 DoCopy=F ISkipM=0
          DoSpLW=F IThBeg=    0 IThEnd=   19.
 Enter PrismC:  IPart=  0 JobTyp=22 DoJE=F Cont=F.
 PrismC:  IPart=     0 DynPar=T LinDyn=F Incr=        1024 UseFst=F UseS4=T ISplat=2.
 PrismC was handed    33498855 working-precision words and  2229 shell-pairs
 Enter PrismC:  IPart=  6 JobTyp=22 DoJE=F Cont=F.
 Enter PrismC:  IPart=  5 JobTyp=22 DoJE=F Cont=F.
 PrismC:  IPart=     6 DynPar=T LinDyn=F Incr=        1024 UseFst=F UseS4=T ISplat=2.
 PrismC was handed    33498855 working-precision words and  2229 shell-pairs
 Enter PrismC:  IPart= 11 JobTyp=22 DoJE=F Cont=F.
 PrismC:  IPart=     5 DynPar=T LinDyn=F Incr=        1024 UseFst=F UseS4=T ISplat=2.
 PrismC was handed    33498855 working-precision words and  2229 shell-pairs
 PrismC:  IPart=    11 DynPar=T LinDyn=F Incr=        1024 UseFst=F UseS4=T ISplat=2.
 PrismC was handed    33498855 working-precision words and  2229 shell-pairs
 Enter PrismC:  IPart= 17 JobTyp=22 DoJE=F Cont=F.
 Enter PrismC:  IPart= 18 JobTyp=22 DoJE=F Cont=F.
 PrismC:  IPart=    17 DynPar=T LinDyn=F Incr=        1024 UseFst=F UseS4=T ISplat=2.
 PrismC was handed    33498855 working-precision words and  2229 shell-pairs
 PrismC:  IPart=    18 DynPar=T LinDyn=F Incr=        1024 UseFst=F UseS4=T ISplat=2.
 PrismC was handed    33498855 working-precision words and  2229 shell-pairs
 Enter PrismC:  IPart=  3 JobTyp=22 DoJE=F Cont=F.
 Enter PrismC:  IPart=  8 JobTyp=22 DoJE=F Cont=F.
 Enter PrismC:  IPart= 10 JobTyp=22 DoJE=F Cont=F.
 Enter PrismC:  IPart=  9 JobTyp=22 DoJE=F Cont=F.
 PrismC:  IPart=     3 DynPar=T LinDyn=F Incr=        1024 UseFst=F UseS4=T ISplat=2.
 PrismC was handed    33498855 working-precision words and  2229 shell-pairs
 PrismC:  IPart=     8 DynPar=T LinDyn=F Incr=        1024 UseFst=F UseS4=T ISplat=2.
 PrismC was handed    33498855 working-precision words and  2229 shell-pairs
 PrismC:  IPart=    10 DynPar=T LinDyn=F Incr=        1024 UseFst=F UseS4=T ISplat=2.
 PrismC:  IPart=     9 DynPar=T LinDyn=F Incr=        1024 UseFst=F UseS4=T ISplat=2.
 PrismC was handed    33498855 working-precision words and  2229 shell-pairs
 PrismC was handed    33498855 working-precision words and  2229 shell-pairs
 Enter PrismC:  IPart=  7 JobTyp=22 DoJE=F Cont=F.
 Enter PrismC:  IPart= 12 JobTyp=22 DoJE=F Cont=F.
 PrismC:  IPart=     7 DynPar=T LinDyn=F Incr=        1024 UseFst=F UseS4=T ISplat=2.
 Enter PrismC:  IPart= 16 JobTyp=22 DoJE=F Cont=F.
 PrismC was handed    33498855 working-precision words and  2229 shell-pairs
 Enter PrismC:  IPart= 13 JobTyp=22 DoJE=F Cont=F.
 PrismC:  IPart=    12 DynPar=T LinDyn=F Incr=        1024 UseFst=F UseS4=T ISplat=2.
 PrismC was handed    33498855 working-precision words and  2229 shell-pairs
 Enter PrismC:  IPart= 15 JobTyp=22 DoJE=F Cont=F.
 Enter PrismC:  IPart=  2 JobTyp=22 DoJE=F Cont=F.
 PrismC:  IPart=    13 DynPar=T LinDyn=F Incr=        1024 UseFst=F UseS4=T ISplat=2.
 PrismC was handed    33498855 working-precision words and  2229 shell-pairs
 Enter PrismC:  IPart=  4 JobTyp=22 DoJE=F Cont=F.
 PrismC:  IPart=    16 DynPar=T LinDyn=F Incr=        1024 UseFst=F UseS4=T ISplat=2.
 PrismC was handed    33498855 working-precision words and  2229 shell-pairs
 PrismC:  IPart=     2 DynPar=T LinDyn=F Incr=        1024 UseFst=F UseS4=T ISplat=2.
 Enter PrismC:  IPart= 14 JobTyp=22 DoJE=F Cont=F.
 PrismC was handed    33498855 working-precision words and  2229 shell-pairs
 PrismC:  IPart=    15 DynPar=T LinDyn=F Incr=        1024 UseFst=F UseS4=T ISplat=2.
 PrismC was handed    33498855 working-precision words and  2229 shell-pairs
 PrismC:  IPart=    14 DynPar=T LinDyn=F Incr=        1024 UseFst=F UseS4=T ISplat=2.
 PrismC was handed    33498855 working-precision words and  2229 shell-pairs
 Enter PrismC:  IPart= 19 JobTyp=22 DoJE=F Cont=F.
 PrismC:  IPart=     4 DynPar=T LinDyn=F Incr=        1024 UseFst=F UseS4=T ISplat=2.
[...]
    R5        2.06687  -0.00000   0.00000  -0.00000  -0.00000   2.06687
    R6        2.05733   0.00000   0.00000   0.00000   0.00000   2.05733
    R7        2.05718   0.00000   0.00000   0.00000   0.00000   2.05718
    R8        2.05801  -0.00000   0.00000  -0.00000  -0.00000   2.05801
    R9        2.03604  -0.00000   0.00000  -0.00000  -0.00000   2.03604
   R10        2.04631  -0.00000   0.00000  -0.00000  -0.00000   2.04631
    A1        2.00732   0.00000   0.00000   0.00000   0.00000   2.00732
    A2        1.89227  -0.00000   0.00000  -0.00000  -0.00000   1.89227
    A3        1.90074  -0.00000   0.00000  -0.00000  -0.00000   1.90074
    A4        1.90060   0.00000   0.00000  -0.00000  -0.00000   1.90060
    A5        1.94044   0.00000   0.00000   0.00000   0.00000   1.94044
    A6        1.94281  -0.00000   0.00000  -0.00000  -0.00000   1.94281
    A7        1.88628   0.00000   0.00000   0.00000   0.00000   1.88628
    A8        1.92740   0.00000   0.00000   0.00000   0.00000   1.92740
    A9        1.92593  -0.00000   0.00000  -0.00000  -0.00000   1.92593
   A10        1.92293  -0.00000   0.00000  -0.00000  -0.00000   1.92293
   A11        1.89407  -0.00000   0.00000   0.00000   0.00000   1.89407
   A12        1.89663   0.00000   0.00000   0.00000   0.00000   1.89663
   A13        1.89616   0.00000   0.00000   0.00000   0.00000   1.89616
   A14        1.99558  -0.00000   0.00000  -0.00000  -0.00000   1.99558
   A15        2.06423  -0.00000   0.00000   0.00000   0.00000   2.06423
   A16        2.11973   0.00000   0.00000   0.00000   0.00000   2.11973
    D1        3.11859   0.00000   0.00000   0.00001   0.00001   3.11860
    D2        1.00497   0.00000   0.00000   0.00001   0.00001   1.00499
    D3       -1.04820   0.00000   0.00000   0.00001   0.00001  -1.04818
    D4       -3.08531   0.00000   0.00000   0.00000   0.00000  -3.08531
    D5       -0.40944   0.00000   0.00000   0.00001   0.00001  -0.40943
    D6       -1.04691   0.00000   0.00000   0.00000   0.00000  -1.04691
    D7        1.04715   0.00000   0.00000   0.00000   0.00000   1.04716
    D8        3.14096   0.00000   0.00000   0.00000   0.00000   3.14096
    D9        1.04202  -0.00000   0.00000   0.00000   0.00000   1.04202
   D10        3.13608  -0.00000   0.00000   0.00000   0.00000   3.13608
   D11       -1.05331  -0.00000   0.00000   0.00000   0.00000  -1.05330
   D12       -3.13709   0.00000   0.00000   0.00000   0.00000  -3.13709
   D13       -1.04303   0.00000   0.00000   0.00000   0.00000  -1.04303
   D14        1.05077   0.00000   0.00000   0.00000   0.00000   1.05077
   D15        2.65953   0.00000   0.00000   0.00000   0.00000   2.65953
         Item               Value     Threshold  Converged?
 Maximum Force            0.000000     0.000002     YES
 RMS     Force            0.000000     0.000001     YES
 Maximum Displacement     0.000031     0.000006     NO 
 RMS     Displacement     0.000007     0.000004     NO 
 Predicted change in Energy=-9.970024D-13
                           ----------------------------
                           ! Non-Optimized Parameters !
                           ! (Angstroms and Degrees)  !
 --------------------------                            --------------------------
 ! Name  Definition              Value          Derivative Info.                !
 --------------------------------------------------------------------------------
 ! R1    R(1,2)                  1.4187         -DE/DX =    0.0                 !
 ! R2    R(1,4)                  1.3461         -DE/DX =    0.0                 !
 ! R3    R(2,3)                  1.5099         -DE/DX =    0.0                 !
 ! R4    R(2,5)                  1.0949         -DE/DX =    0.0                 !
 ! R5    R(2,6)                  1.0937         -DE/DX =    0.0                 !
 ! R6    R(3,7)                  1.0887         -DE/DX =    0.0                 !
 ! R7    R(3,8)                  1.0886         -DE/DX =    0.0                 !
 ! R8    R(3,9)                  1.0891         -DE/DX =    0.0                 !
 ! R9    R(4,10)                 1.0774         -DE/DX =    0.0                 !
 ! R10   R(4,11)                 1.0829         -DE/DX =    0.0                 !
 ! A1    A(2,1,4)              115.011          -DE/DX =    0.0                 !
 ! A2    A(1,2,3)              108.4193         -DE/DX =    0.0                 !
 ! A3    A(1,2,5)              108.9045         -DE/DX =    0.0                 !
 ! A4    A(1,2,6)              108.8964         -DE/DX =    0.0                 !
 ! A5    A(3,2,5)              111.1788         -DE/DX =    0.0                 !
 ! A6    A(3,2,6)              111.3146         -DE/DX =    0.0                 !
 ! A7    A(5,2,6)              108.0761         -DE/DX =    0.0                 !
 ! A8    A(2,3,7)              110.4321         -DE/DX =    0.0                 !
 ! A9    A(2,3,8)              110.3475         -DE/DX =    0.0                 !
 ! A10   A(2,3,9)              110.1758         -DE/DX =    0.0                 !
 ! A11   A(7,3,8)              108.5219         -DE/DX =    0.0                 !
 ! A12   A(7,3,9)              108.6686         -DE/DX =    0.0                 !
 ! A13   A(8,3,9)              108.642          -DE/DX =    0.0                 !
 ! A14   A(1,4,10)             114.3385         -DE/DX =    0.0                 !
 ! A15   A(1,4,11)             118.2716         -DE/DX =    0.0                 !
 ! A16   A(10,4,11)            121.4515         -DE/DX =    0.0                 !
 ! D1    D(4,1,2,3)            178.6825         -DE/DX =    0.0                 !
 ! D2    D(4,1,2,5)             57.5814         -DE/DX =    0.0                 !
 ! D3    D(4,1,2,6)            -60.0565         -DE/DX =    0.0                 !
 ! D4    D(2,1,4,10)          -176.7751         -DE/DX =    0.0                 !
 ! D5    D(2,1,4,11)           -23.4587         -DE/DX =    0.0                 !
 ! D6    D(1,2,3,7)            -59.9833         -DE/DX =    0.0                 !
 ! D7    D(1,2,3,8)             59.9976         -DE/DX =    0.0                 !
 ! D8    D(1,2,3,9)            179.9636         -DE/DX =    0.0                 !
 ! D9    D(5,2,3,7)             59.7032         -DE/DX =    0.0                 !
 ! D10   D(5,2,3,8)            179.6841         -DE/DX =    0.0                 !
 ! D11   D(5,2,3,9)            -60.3499         -DE/DX =    0.0                 !
 ! D12   D(6,2,3,7)           -179.742          -DE/DX =    0.0                 !
 ! D13   D(6,2,3,8)            -59.7611         -DE/DX =    0.0                 !
 ! D14   D(6,2,3,9)             60.2049         -DE/DX =    0.0                 !
 ! D15   D(1,4,10,11)          152.3799         -DE/DX =    0.0                 !
 --------------------------------------------------------------------------------
 GradGradGradGradGradGradGradGradGradGradGradGradGradGradGradGradGradGrad

 Leave Link  103 at Wed Mar 13 04:20:16 2019, MaxMem=   671088640 cpu:               0.3 elap:               0.0
 (Enter /shared/centos7/gaussian/g16/l9999.exe)

 ----------------------------------------------------------------------

 Electric dipole moment (input orientation):
 (Debye = 10**-18 statcoulomb cm , SI units = C m)
                  (au)            (Debye)         (10**-30 SI)
   Tot        0.552231D+00      0.140363D+01      0.468201D+01
   x         -0.319886D+00     -0.813068D+00     -0.271210D+01
   y          0.430338D+00      0.109381D+01      0.364856D+01
   z         -0.132064D+00     -0.335674D+00     -0.111969D+01

 Dipole polarizability, Alpha (input orientation).
 (esu units = cm**3 , SI units = C**2 m**2 J**-1)
 Alpha(0;0):
               (au)            (10**-24 esu)      (10**-40 SI)
   iso        0.438617D+02      0.649964D+01      0.723182D+01
   aniso      0.140817D+02      0.208669D+01      0.232176D+01
   xx         0.532368D+02      0.788888D+01      0.877757D+01
   yx         0.629667D-01      0.933071D-02      0.103818D-01
   yy         0.393810D+02      0.583567D+01      0.649306D+01
   zx         0.229275D+00      0.339751D-01      0.378024D-01
   zy         0.282433D+00      0.418522D-01      0.465669D-01
   zz         0.389674D+02      0.577437D+01      0.642485D+01

 ----------------------------------------------------------------------

 Dipole orientation:
     8          0.49421104          0.05022759         -1.31550233
     6         -0.30403400         -0.25420517          1.22577548
     6         -2.53741361          1.46226611          1.68101467
     6          2.52012636         -1.33726006         -1.98000841
     1          1.26958670          0.21708562          2.48374251
     1         -0.80329652         -2.23544590          1.53779200
     1         -2.01318452          3.42476849          1.35484372
     1         -4.08182994          0.97865920          0.41101020
     1         -3.19642460          1.27017017          3.62117477
     1          3.17168071         -1.01358279         -3.88162853
     1          3.79592629         -1.95770385         -0.50529724

 Electric dipole moment (dipole orientation):
 (Debye = 10**-18 statcoulomb cm , SI units = C m)
                  (au)            (Debye)         (10**-30 SI)
   Tot        0.552231D+00      0.140363D+01      0.468201D+01
   x          0.000000D+00      0.000000D+00      0.000000D+00
   y          0.000000D+00      0.000000D+00      0.000000D+00
   z          0.552231D+00      0.140363D+01      0.468201D+01

 Dipole polarizability, Alpha (dipole orientation).
 (esu units = cm**3 , SI units = C**2 m**2 J**-1)
 Alpha(0;0):
               (au)            (10**-24 esu)      (10**-40 SI)
   iso        0.438617D+02      0.649964D+01      0.723182D+01
   aniso      0.140817D+02      0.208669D+01      0.232176D+01
   xx         0.463307D+02      0.686550D+01      0.763889D+01
   yx        -0.397782D+01     -0.589453D+00     -0.655854D+00
   yy         0.413466D+02      0.612693D+01      0.681713D+01
   zx        -0.600271D+01     -0.889510D+00     -0.989714D+00
   zy         0.283382D+01      0.419929D+00      0.467234D+00
   zz         0.439080D+02      0.650649D+01      0.723945D+01

 ----------------------------------------------------------------------

 Test job not archived.
 1\1\GINC-C0213\Freq\UM062X\6-311+G(2df,2p)\C3H7O1(2)\UNDERKOFFLER.C\13
 -Mar-2019\0\\#P Geom=AllCheck Guess=TCheck SCRF=Check Test GenChk UM06
 2X/6-311+G(2df,2p) Freq\\Gaussian input prepared by ASE\\0,2\O,0.58426
 86728,-0.4607619526,-0.0057255205\C,-0.444057372,0.5154639189,0.042900
 1525\C,-1.7763131826,-0.1905193779,-0.0379359891\C,1.837195826,0.03015
 7669,0.029523939\H,-0.3132809338,1.2103889726,-0.7930093363\H,-0.35043
 16749,1.0825152245,0.9734644412\H,-1.8523536996,-0.753538316,-0.966634
 8721\H,-1.8897560851,-0.8814551531,0.7956236236\H,-2.5883047474,0.5343
 484602,-0.0022425186\H,2.6091312008,-0.7157612706,-0.0630217257\H,1.99
 70639957,1.051649825,-0.292321194\\Version=EM64L-G16RevA.03\State=2-A\
 HF=-193.6538671\S2=0.754546\S2-1=0.\S2A=0.750015\RMSD=3.446e-09\RMSF=7
 .165e-07\ZeroPoint=0.0950168\Thermal=0.100606\Dipole=-0.3198858,0.4303
 382,-0.1320644\DipoleDeriv=-1.6004587,-0.0029917,-0.0509138,-0.0217378
 ,-0.6049398,-0.0115274,-0.0786562,0.0028027,-0.2329904,0.8574813,-0.14
 56557,0.0027344,-0.3770118,0.4508136,-0.0049779,-0.0158173,-0.0040354,
 0.3755279,-0.0674164,-0.022596,-0.0035821,-0.0557899,0.0514331,-0.0007
 082,-0.0062369,0.000739,0.0724146,0.872341,0.1406079,0.0320269,0.32506
 96,0.2585663,-0.0686932,0.0082076,-0.0863731,-0.3017439,-0.0400076,-0.
 0523517,0.0548842,0.0508248,-0.053236,0.0723407,0.0084163,0.1178758,-0
 .0791103,-0.0303522,-0.0352967,-0.0559436,0.0665829,-0.0239155,-0.0561
 681,0.0156517,-0.1080741,-0.0984308,0.0454205,-0.0062141,0.0165262,-0.
 0467673,0.018729,-0.0656822,-0.022662,-0.0794818,-0.0598359,0.0457666,
 -0.0087366,-0.0123742,-0.0539377,-0.0034589,0.0712198,0.019496,0.08640
 75,-0.0356807,-0.0529926,0.0594182,0.0013486,0.0939103,-0.0264244,-0.0
 059077,0.0043743,-0.0067323,0.07809,-0.0346,0.0158753,0.0220023,0.0706
 025,-0.0060915,-0.0010539,0.0552942,-0.0202547,0.1576309,0.0048183,0.0
 579412,-0.0067087,-0.0517456,-0.0614758,0.071158,0.011932,0.0971265,0.
 1241286\Polar=53.2368197,0.0629667,39.3810365,0.2292752,0.2824327,38.9
 673788\Quadrupole=0.9774811,-0.0959692,-0.8815119,-0.1636488,-0.684235
 ,-0.2309375\PG=C01 [X(C3H7O1)]\NImag=0\\0.59684527,-0.00323049,0.34440
 831,-0.00073235,0.00403108,0.05826915,-0.14385358,0.05373760,0.0044521
 0,0.50056903,0.09120490,-0.17344873,-0.00535767,0.04436089,0.54588236,
 0.00479106,-0.00504729,-0.06507996,-0.00067902,-0.00197960,0.60198585,
 -0.04137431,-0.00754661,-0.00142851,-0.17515795,-0.05846701,-0.0063084
 4,0.52078618,0.03493656,0.01269488,0.00141158,-0.07578127,-0.12071043,
 -0.00429082,-0.03921635,0.57058894,0.00171304,0.00087846,0.00199205,-0
 .00768962,-0.00422916,-0.08474965,-0.00431685,-0.00202348,0.58471582,-
 0.34196066,-0.07741842,-0.01923825,-0.05307821,-0.00653820,-0.00172357
 ,-0.00211668,0.00204212,0.00025083,0.64148725,-0.12263431,-0.14231964,
 -0.00309773,0.02536067,0.00931196,0.00195572,0.00336340,-0.00430708,0.
 00002423,-0.03711956,0.66079402,-0.00860353,0.00491883,-0.00935210,0.0
 0191739,-0.00062081,-0.00317892,0.00003682,0.00016776,0.00044669,-0.01
 952906,-0.07722967,0.06053306,-0.01113813,0.02522432,-0.02046385,-0.05
 381679,-0.02599072,0.02902387,-0.00370630,-0.01915856,0.02447643,0.005
 50741,0.00455451,-0.00133756,0.06392507,0.01312483,-0.02687793,0.01916
 571,-0.02248977,-0.13999732,0.11397276,-0.00360460,-0.00824174,0.01164
 019,-0.00414908,-0.00066829,-0.00039245,0.01691470,0.16294465,-0.00386
 702,0.00059338,0.00708996,0.02675429,0.11857533,-0.20758942,-0.0003000
 6,-0.00290062,0.00322320,0.00087644,0.00003117,0.00003753,-0.02734982,
 -0.13210320,0.21650349,-0.01230574,0.02298545,0.02373207,-0.05192633,-
 0.01791588,-0.02521753,-0.00264967,-0.01552903,-0.02712950,0.00613222,
 0.00309554,0.00094145,0.00224489,0.00139452,0.00470157,0.06204255,0.01
 294762,-0.02250681,-0.02258963,-0.01478193,-0.10994916,-0.10195433,-0.
 00314477,-0.00672190,-0.01314609,-0.00336058,-0.00032792,0.00062410,0.
 00128914,0.01148365,0.01687513,0.00834200,0.12758028,0.00458129,-0.003
 64801,0.00529272,-0.02190143,-0.10657669,-0.24406189,-0.00045069,0.000
 86140,0.00074210,-0.00043809,0.00006985,0.00086724,-0.00332544,-0.0117
 0898,-0.02164315,0.02188553,0.12040499,0.25725806,0.00329512,0.0006786
 3,0.00072923,-0.00369487,-0.01768482,-0.02892411,-0.04784075,-0.007285
 96,-0.01259990,-0.00047810,-0.00012721,0.00023712,0.00138929,0.0008255
 7,0.00043191,-0.00526021,-0.00252235,0.00022142,0.05107191,0.00043562,
 0.00114462,0.00100906,-0.00053877,-0.01059414,-0.01536656,-0.00920601,
 -0.11891533,-0.11804748,0.00027284,0.00015271,0.00023407,0.00064993,0.
 00007474,0.00006400,-0.00314173,-0.00038280,0.00056136,0.01270367,0.12
 707776,-0.00038249,0.00054541,0.00027654,-0.00012344,-0.00056668,-0.00
 066947,-0.01431408,-0.11902129,-0.24875921,-0.00001974,0.00025507,0.00
 007319,-0.00060384,0.00011126,0.00085453,0.00033143,-0.00012670,0.0015
 9408,0.01571449,0.13112543,0.26618651,0.00328044,0.00063944,-0.0004121
 2,-0.00482573,-0.02151117,0.02577723,-0.04886936,-0.01502784,0.0188541
 1,-0.00051886,-0.00027296,-0.00009163,-0.00528026,-0.00247001,-0.00081
 454,0.00137541,0.00088130,-0.00027459,-0.00096482,0.00147956,-0.001251
 08,0.05233284,0.00041785,0.00129582,-0.00083624,-0.00113744,-0.0125325
 9,0.01343680,-0.01717782,-0.15564546,0.13136528,0.00020751,0.00018422,
 -0.00016338,-0.00304446,-0.00031032,-0.00091307,0.00054731,0.00012233,
 -0.00013246,0.00189815,0.01216656,-0.01338034,0.02136512,0.16755935,0.
 00054423,-0.00033276,0.00001254,-0.00015547,-0.00208267,0.00252038,0.0
 2032492,0.13237079,-0.21107128,0.00004843,-0.00028241,0.00007061,-0.00
 107541,-0.00025516,0.00141726,0.00070526,-0.00018668,0.00081285,0.0023
 1482,0.01811380,-0.01991374,-0.02166131,-0.14502244,0.22455002,-0.0077
 6229,-0.00429088,-0.00042691,-0.01621154,0.02339565,0.00140013,-0.1978
 6797,0.13310046,0.00647176,0.00009687,0.00163782,-0.00005016,0.0007653
 7,-0.00020675,0.00073317,0.00078374,-0.00012443,-0.00070867,0.00233666
 ,-0.00263228,0.00062376,0.00327836,-0.00320314,-0.00097561,0.21516471,
 -0.00463057,-0.00076833,-0.00018647,-0.01037598,0.01174502,0.00081213,
 0.13573013,-0.16992578,-0.00613452,-0.00074583,0.00099679,-0.00003813,
 0.00087771,0.00040528,0.00036199,0.00085753,0.00042234,-0.00026460,0.0
 1135645,-0.01072806,0.00106026,0.01452138,-0.01290890,-0.00235208,-0.1
 4732092,0.18096421,-0.00054124,-0.00015627,0.00093391,-0.00100319,0.00
 155511,-0.00235636,0.00667522,-0.00619446,-0.04678216,0.00000510,0.000
 04179,0.00037936,-0.00005643,-0.00004301,-0.00002377,0.00021403,0.0001
 0454,-0.00008944,0.02197535,-0.01761120,0.00039813,-0.02001714,0.01561
 863,0.00164597,-0.00715844,0.00670841,0.04589711,-0.03004166,0.0223104
 5,0.00307012,-0.00125641,-0.00517547,0.00052474,-0.00091174,0.00155160
 ,0.00006697,-0.19428677,0.14245362,0.01799885,-0.00005670,0.00018567,-
 0.00028268,-0.00019709,0.00022886,0.00021954,0.00004770,-0.00002998,-0
 .00005417,0.00006514,-0.00001739,0.00005103,-0.00048395,-0.00032264,-0
 .00005125,0.21969146,-0.01470546,0.01461886,0.00063720,-0.00167012,-0.
 00054406,0.00015154,-0.00069851,0.00066532,-0.00005095,0.15787665,-0.2
 1384522,-0.00968386,-0.00022600,0.00027415,-0.00038703,-0.00025820,0.0
 0012495,0.00024205,0.00008465,0.00002547,-0.00000682,0.00011469,0.0000
 4187,0.00002108,-0.00021153,-0.00015466,-0.00001609,-0.15646529,0.2075
 6948,0.00021440,0.00200875,-0.00272737,-0.00085694,0.00077816,0.002541
 62,0.00000413,-0.00002685,0.00045253,0.02921270,-0.02395915,-0.0122771
 5,0.00021119,-0.00056928,0.00026863,-0.00039118,0.00026566,0.00000028,
 0.00004195,0.00000323,-0.00001261,-0.00005801,-0.00000953,-0.00001673,
 0.00000951,-0.00000549,-0.00000223,-0.02180336,0.01459690,0.01009551,-
 0.01498445,-0.03308950,0.01071846,0.00325239,-0.00567817,0.00133563,-0
 .00029145,0.00036826,-0.00009727,-0.06078447,-0.02031154,0.00848032,0.
 00016615,0.00047491,-0.00088326,-0.00023975,0.00024515,0.00019112,0.00
 009807,0.00000715,0.00007916,0.00012683,0.00014431,-0.00012089,-0.0000
 9995,0.00005275,-0.00004200,0.00743002,0.01615912,-0.00658440,0.065326
 62,-0.00786654,-0.00824106,0.00581311,0.00331612,0.00083708,-0.0016903
 6,-0.00003186,0.00051857,-0.00027648,-0.03106744,-0.30997157,0.0821835
 6,-0.00109057,0.00091312,-0.00019710,-0.00037754,0.00015504,0.00019108
 ,0.00007320,-0.00002154,0.00000440,0.00028050,0.00002711,0.00000853,-0
 .00014399,-0.00004792,-0.00000745,-0.00471945,-0.00877617,0.00691761,0
 .04162757,0.32460735,0.00228262,-0.00379157,0.00329256,-0.00071466,0.0
 0050468,0.00063784,0.00007753,-0.00035401,-0.00021009,0.01055522,0.102
 19113,-0.03759950,0.00050087,0.00018217,-0.00013825,0.00022686,-0.0002
 7099,-0.00077283,-0.00014228,-0.00008570,-0.00002794,-0.00005093,0.000
 03675,-0.00002788,0.00008145,0.00003848,-0.00000051,0.00026020,-0.0055
 0403,0.00167752,-0.01307688,-0.09294690,0.03316909\\0.00000018,0.00000
 018,-0.00000086,0.00000002,-0.00000020,0.00000051,0.00000007,-0.000000
 37,0.00000012,-0.00000008,0.00000038,-0.00000077,-0.00000050,0.0000008
 6,0.00000127,0.00000007,-0.00000116,0.00000114,-0.00000008,0.00000069,
 -0.00000049,0.00000049,-0.00000133,-0.00000064,-0.00000010,-0.00000058
 ,0.00000120,0.00000020,0.00000071,-0.00000182,-0.00000028,0.00000082,0
 .00000034\\\@


 WE ARE PERHAPS NOT FAR REMOVED FROM THE TIME WHEN WE SHALL BE ABLE TO SUBMIT
 THE BULK OF CHEMICAL PHENOMENA TO CALCULATION.

            -- JOSEPH LOUIS GAY-LUSSAC
               MEMOIRES DE LA SOCIETE D'ARCUEIL, 2, 207 (1808)
 Job cpu time:       0 days  0 hours 49 minutes 44.7 seconds.
 Elapsed time:       0 days  0 hours  2 minutes 30.3 seconds.
 File lengths (MBytes):  RWF=   1328 Int=      0 D2E=      0 Chk=     32 Scr=     32
 Normal termination of Gaussian 16 at Wed Mar 13 04:20:16 2019.
