 Entering Gaussian System, Link 0=g16
 Input=TVFRQKHUZDMLDB-UHFFFAOYSA-N_36by10.0_tor03_a2_F.com
 Output=TVFRQKHUZDMLDB-UHFFFAOYSA-N_36by10.0_tor03_a2_F.log
 Initial command:
 /shared/centos7/gaussian/g16/l1.exe "/scratch/underkoffler.c/gaussian_scratch/Gau-31850.inp" -scrdir="/scratch/underkoffler.c/gaussian_scratch/"
 Entering Link 1 = /shared/centos7/gaussian/g16/l1.exe PID=     31851.
  
 Copyright (c) 1988,1990,1992,1993,1995,1998,2003,2009,2016,
            Gaussian, Inc.  All Rights Reserved.
  
 This is part of the Gaussian(R) 16 program.  It is based on
 the Gaussian(R) 09 system (copyright 2009, Gaussian, Inc.),
 the Gaussian(R) 03 system (copyright 2003, Gaussian, Inc.),
 the Gaussian(R) 98 system (copyright 1998, Gaussian, Inc.),
 the Gaussian(R) 94 system (copyright 1995, Gaussian, Inc.),
 the Gaussian 92(TM) system (copyright 1992, Gaussian, Inc.),
 the Gaussian 90(TM) system (copyright 1990, Gaussian, Inc.),
 the Gaussian 88(TM) system (copyright 1988, Gaussian, Inc.),
 the Gaussian 86(TM) system (copyright 1986, Carnegie Mellon
 University), and the Gaussian 82(TM) system (copyright 1983,
 Carnegie Mellon University). Gaussian is a federally registered
 trademark of Gaussian, Inc.
  
 This software contains proprietary and confidential information,
 including trade secrets, belonging to Gaussian, Inc.
  
 This software is provided under written license and may be
 used, copied, transmitted, or stored only in accord with that
 written license.
  
 The following legend is applicable only to US Government
 contracts under FAR:
  
                    RESTRICTED RIGHTS LEGEND
  
 Use, reproduction and disclosure by the US Government is
 subject to restrictions as set forth in subparagraphs (a)
 and (c) of the Commercial Computer Software - Restricted
 Rights clause in FAR 52.227-19.
  
 Gaussian, Inc.
 340 Quinnipiac St., Bldg. 40, Wallingford CT 06492
  
  
 ---------------------------------------------------------------
 Warning -- This program may not be used in any manner that
 competes with the business of Gaussian, Inc. or will provide
 assistance to any competitor of Gaussian, Inc.  The licensee
 of this program is prohibited from giving any competitor of
 Gaussian, Inc. access to this program.  By using this program,
 the user acknowledges that Gaussian, Inc. is engaged in the
 business of creating and licensing software in the field of
 computational chemistry and represents and warrants to the
 licensee that it is not a competitor of Gaussian, Inc. and that
 it will not use this program in any manner prohibited above.
 ---------------------------------------------------------------
  

 Cite this work as:
 Gaussian 16, Revision A.03,
 M. J. Frisch, G. W. Trucks, H. B. Schlegel, G. E. Scuseria, 
 M. A. Robb, J. R. Cheeseman, G. Scalmani, V. Barone, 
 G. A. Petersson, H. Nakatsuji, X. Li, M. Caricato, A. V. Marenich, 
 J. Bloino, B. G. Janesko, R. Gomperts, B. Mennucci, H. P. Hratchian, 
 J. V. Ortiz, A. F. Izmaylov, J. L. Sonnenberg, D. Williams-Young, 
 F. Ding, F. Lipparini, F. Egidi, J. Goings, B. Peng, A. Petrone, 
 T. Henderson, D. Ranasinghe, V. G. Zakrzewski, J. Gao, N. Rega, 
 G. Zheng, W. Liang, M. Hada, M. Ehara, K. Toyota, R. Fukuda, 
 J. Hasegawa, M. Ishida, T. Nakajima, Y. Honda, O. Kitao, H. Nakai, 
 T. Vreven, K. Throssell, J. A. Montgomery, Jr., J. E. Peralta, 
 F. Ogliaro, M. J. Bearpark, J. J. Heyd, E. N. Brothers, K. N. Kudin, 
 V. N. Staroverov, T. A. Keith, R. Kobayashi, J. Normand, 
 K. Raghavachari, A. P. Rendell, J. C. Burant, S. S. Iyengar, 
 J. Tomasi, M. Cossi, J. M. Millam, M. Klene, C. Adamo, R. Cammi, 
 J. W. Ochterski, R. L. Martin, K. Morokuma, O. Farkas, 
 J. B. Foresman, and D. J. Fox, Gaussian, Inc., Wallingford CT, 2016.
 
 ******************************************
 Gaussian 16:  EM64L-G16RevA.03 25-Dec-2016
                23-Apr-2019 
 ******************************************
 %nprocshared=20
 Will use up to   20 processors via shared memory.
 %mem=5GB
 ----------------------------------------------
 #p m062x/6-311+g(2df,2p) Opt=(CalcFC,ModRedun)
 ----------------------------------------------
 1/10=4,18=120,19=15,26=3,38=1/1,3;
 2/9=110,12=2,17=6,18=5,40=1/2;
 3/5=4,6=6,7=214,11=2,25=1,30=1,71=2,74=-55,140=1/1,2,3;
 4//1;
 5/5=2,38=5/2;
 8/6=4,10=90,11=11/1;
 11/6=1,8=1,9=11,15=111,16=1/1,2,10;
 10/6=1,13=1/2;
 6/7=2,8=2,9=2,10=2,28=1/1;
 7/10=1,18=20,25=1/1,2,3,16;
 1/10=4,18=20,19=15,26=3/3(2);
 2/9=110/2;
 99//99;
 2/9=110/2;
 3/5=4,6=6,7=214,11=2,25=1,30=1,71=1,74=-55/1,2,3;
 4/5=5,16=3,69=1/1;
 5/5=2,38=5/2;
 7//1,2,3,16;
 1/18=20,19=15,26=3/3(-5);
 2/9=110/2;
 6/7=2,8=2,9=2,10=2,19=2,28=1/1;
 99/9=1/99;
 Leave Link    1 at Tue Apr 23 21:46:49 2019, MaxMem=   671088640 cpu:              56.2 elap:               3.0
 (Enter /shared/centos7/gaussian/g16/l101.exe)
 ----------------------------------------
 Gaussian Input Prepared from Scan Object
 ----------------------------------------
 Symbolic Z-matrix:
 Charge =  0 Multiplicity = 2
 O                     0.58427  -0.46076  -0.00573 
 C                    -0.44406   0.51546   0.0429 
 C                    -1.77631  -0.19052  -0.03794 
 C                     1.8372    0.03016   0.02952 
 H                    -0.31328   1.21039  -0.79301 
 H                    -0.35043   1.08252   0.97346 
 H                    -1.85235  -0.75354  -0.96663 
 H                    -1.88976  -0.88146   0.79562 
 H                    -2.5883    0.53435  -0.00224 
 H                     2.60913  -0.71576  -0.06302 
 H                     1.99706   1.05165  -0.29232 
 
 The following ModRedundant input section has been read:
 B       4      11 B                                                           
 B       4      10 B                                                           
 B       3       8 B                                                           
 B       3       7 B                                                           
 B       3       9 B                                                           
 B       1       2 B                                                           
 B       2       5 B                                                           
 B       1       4 B                                                           
 B       2       3 B                                                           
 B       2       6 B                                                           
 D       2       1       4      10 S  36 10.000                                
 D       4       1       2       6 F                                           
 D       6       2       3       7 F                                           
 
 Add atom      4 valence  3 ND=      2 dihedral       1      4     10     11
 ITRead=  0  0  0  0  0  0  0  0  0  0  0
 MicOpt= -1 -1 -1 -1 -1 -1 -1 -1 -1 -1 -1
 NAtoms=     11 NQM=       11 NQMF=       0 NMMI=      0 NMMIF=      0
                NMic=       0 NMicF=      0.
                    Isotopes and Nuclear Properties:
 (Nuclear quadrupole moments (NQMom) in fm**2, nuclear magnetic moments (NMagM)
  in nuclear magnetons)

  Atom         1           2           3           4           5           6           7           8           9          10
 IAtWgt=          16          12          12          12           1           1           1           1           1           1
 AtmWgt=  15.9949146  12.0000000  12.0000000  12.0000000   1.0078250   1.0078250   1.0078250   1.0078250   1.0078250   1.0078250
 NucSpn=           0           0           0           0           1           1           1           1           1           1
 AtZEff=  -0.0000000  -0.0000000  -0.0000000  -0.0000000  -0.0000000  -0.0000000  -0.0000000  -0.0000000  -0.0000000  -0.0000000
 NQMom=    0.0000000   0.0000000   0.0000000   0.0000000   0.0000000   0.0000000   0.0000000   0.0000000   0.0000000   0.0000000
 NMagM=    0.0000000   0.0000000   0.0000000   0.0000000   2.7928460   2.7928460   2.7928460   2.7928460   2.7928460   2.7928460
 AtZNuc=   8.0000000   6.0000000   6.0000000   6.0000000   1.0000000   1.0000000   1.0000000   1.0000000   1.0000000   1.0000000

  Atom        11
 IAtWgt=           1
 AtmWgt=   1.0078250
 NucSpn=           1
 AtZEff=  -0.0000000
 NQMom=    0.0000000
 NMagM=    2.7928460
 AtZNuc=   1.0000000
 Leave Link  101 at Tue Apr 23 21:46:49 2019, MaxMem=   671088640 cpu:               5.0 elap:               0.3
 (Enter /shared/centos7/gaussian/g16/l103.exe)

 GradGradGradGradGradGradGradGradGradGradGradGradGradGradGradGradGradGrad
 Berny optimization.
 Initialization pass.
                           ----------------------------
                           !    Initial Parameters    !
                           ! (Angstroms and Degrees)  !
 --------------------------                            --------------------------
 ! Name  Definition              Value          Derivative Info.                !
 --------------------------------------------------------------------------------
 ! R1    R(1,2)                  1.4187         calculate D2E/DX2 analytically  !
 ! R2    R(1,4)                  1.3461         calculate D2E/DX2 analytically  !
 ! R3    R(2,3)                  1.5099         calculate D2E/DX2 analytically  !
 ! R4    R(2,5)                  1.0949         calculate D2E/DX2 analytically  !
 ! R5    R(2,6)                  1.0937         calculate D2E/DX2 analytically  !
 ! R6    R(3,7)                  1.0887         calculate D2E/DX2 analytically  !
 ! R7    R(3,8)                  1.0886         calculate D2E/DX2 analytically  !
 ! R8    R(3,9)                  1.0891         calculate D2E/DX2 analytically  !
 ! R9    R(4,10)                 1.0774         calculate D2E/DX2 analytically  !
 ! R10   R(4,11)                 1.0829         calculate D2E/DX2 analytically  !
 ! A1    A(2,1,4)              115.011          calculate D2E/DX2 analytically  !
 ! A2    A(1,2,3)              108.4193         calculate D2E/DX2 analytically  !
 ! A3    A(1,2,5)              108.9045         calculate D2E/DX2 analytically  !
 ! A4    A(1,2,6)              108.8964         calculate D2E/DX2 analytically  !
 ! A5    A(3,2,5)              111.1788         calculate D2E/DX2 analytically  !
 ! A6    A(3,2,6)              111.3146         calculate D2E/DX2 analytically  !
 ! A7    A(5,2,6)              108.0761         calculate D2E/DX2 analytically  !
 ! A8    A(2,3,7)              110.4321         calculate D2E/DX2 analytically  !
 ! A9    A(2,3,8)              110.3475         calculate D2E/DX2 analytically  !
 ! A10   A(2,3,9)              110.1758         calculate D2E/DX2 analytically  !
 ! A11   A(7,3,8)              108.5219         calculate D2E/DX2 analytically  !
 ! A12   A(7,3,9)              108.6686         calculate D2E/DX2 analytically  !
 ! A13   A(8,3,9)              108.642          calculate D2E/DX2 analytically  !
 ! A14   A(1,4,10)             114.3385         calculate D2E/DX2 analytically  !
 ! A15   A(1,4,11)             118.2716         calculate D2E/DX2 analytically  !
 ! A16   A(10,4,11)            121.4515         calculate D2E/DX2 analytically  !
 ! D1    D(4,1,2,3)            178.6818         calculate D2E/DX2 analytically  !
 ! D2    D(4,1,2,5)             57.5807         calculate D2E/DX2 analytically  !
 ! D3    D(4,1,2,6)            -60.0572         frozen, calculate D2E/DX2 analyt!
 ! D4    D(2,1,4,10)          -176.7754         Scan                            !
 ! D5    D(2,1,4,11)           -23.459          calculate D2E/DX2 analytically  !
 ! D6    D(1,2,3,7)            -59.9834         calculate D2E/DX2 analytically  !
 ! D7    D(1,2,3,8)             59.9975         calculate D2E/DX2 analytically  !
 ! D8    D(1,2,3,9)            179.9635         calculate D2E/DX2 analytically  !
 ! D9    D(5,2,3,7)             59.7031         calculate D2E/DX2 analytically  !
 ! D10   D(5,2,3,8)            179.684          calculate D2E/DX2 analytically  !
 ! D11   D(5,2,3,9)            -60.35           calculate D2E/DX2 analytically  !
 ! D12   D(6,2,3,7)           -179.7421         frozen, calculate D2E/DX2 analyt!
 ! D13   D(6,2,3,8)            -59.7612         calculate D2E/DX2 analytically  !
 ! D14   D(6,2,3,9)             60.2048         calculate D2E/DX2 analytically  !
 ! D15   D(1,4,10,11)          152.3798         calculate D2E/DX2 analytically  !
 --------------------------------------------------------------------------------
 Trust Radius=3.00D-01 FncErr=1.00D-07 GrdErr=1.00D-06 EigMax=2.50D+02 EigMin=1.00D-04
 Number of optimizations in scan=  37
 Number of steps in this run=     51 maximum allowed number of steps=    100.
 GradGradGradGradGradGradGradGradGradGradGradGradGradGradGradGradGradGrad

 Leave Link  103 at Tue Apr 23 21:46:49 2019, MaxMem=   671088640 cpu:               0.2 elap:               0.0
 (Enter /shared/centos7/gaussian/g16/l202.exe)
                          Input orientation:                          
 ---------------------------------------------------------------------
 Center     Atomic      Atomic             Coordinates (Angstroms)
 Number     Number       Type             X           Y           Z
 ---------------------------------------------------------------------
      1          8           0        0.584269   -0.460762   -0.005726
      2          6           0       -0.444057    0.515464    0.042900
      3          6           0       -1.776313   -0.190519   -0.037936
      4          6           0        1.837196    0.030158    0.029524
      5          1           0       -0.313281    1.210389   -0.793009
      6          1           0       -0.350432    1.082515    0.973464
      7          1           0       -1.852354   -0.753538   -0.966635
      8          1           0       -1.889756   -0.881455    0.795624
      9          1           0       -2.588305    0.534348   -0.002243
     10          1           0        2.609131   -0.715761   -0.063022
     11          1           0        1.997064    1.051650   -0.292321
 ---------------------------------------------------------------------
                    Distance matrix (angstroms):
                    1          2          3          4          5
     1  O    0.000000
     2  C    1.418744   0.000000
     3  C    2.376219   1.509918   0.000000
     4  C    1.346132   2.332342   3.620870   0.000000
     5  H    2.053815   1.094883   2.161745   2.587288   0.000000
     6  H    2.052847   1.093738   2.162565   2.604649   1.771486
     7  H    2.635563   2.147749   1.088694   3.901191   2.501180
     8  H    2.634377   2.146630   1.088615   3.912559   3.063469
     9  H    3.324978   2.144806   1.089054   4.454242   2.501615
    10  H    2.041660   3.293796   4.416858   1.077425   3.575392
    11  H    2.089382   2.521694   3.980712   1.082861   2.369300
                    6          7          8          9         10
     6  H    0.000000
     7  H    3.064449   0.000000
     8  H    2.501665   1.767291   0.000000
     9  H    2.502112   1.769274   1.768915   0.000000
    10  H    3.614846   4.552229   4.583090   5.346009   0.000000
    11  H    2.667190   4.304814   4.475253   4.623565   1.884396
                   11
    11  H    0.000000
 Stoichiometry    C3H7O(2)
 Framework group  C1[X(C3H7O)]
 Deg. of freedom    27
 Full point group                 C1      NOp   1
 Largest Abelian subgroup         C1      NOp   1
 Largest concise Abelian subgroup C1      NOp   1
                         Standard orientation:                         
 ---------------------------------------------------------------------
 Center     Atomic      Atomic             Coordinates (Angstroms)
 Number     Number       Type             X           Y           Z
 ---------------------------------------------------------------------
      1          8           0        0.584747   -0.459802    0.004055
      2          6           0       -0.443739    0.516657    0.043814
      3          6           0       -1.775907   -0.190332   -0.029301
      4          6           0        1.837600    0.031675    0.033731
      5          1           0       -0.313623    1.203430   -0.798908
      6          1           0       -0.349640    1.092765    0.968751
      7          1           0       -1.852421   -0.762387   -0.952423
      8          1           0       -1.888692   -0.873135    0.811022
      9          1           0       -2.588018    0.534696   -0.000160
     10          1           0        2.609623   -0.714965   -0.052029
     11          1           0        1.997067    1.050013   -0.298152
 ---------------------------------------------------------------------
 Rotational constants (GHZ):          31.1703033           4.4204932           4.0774761
 Leave Link  202 at Tue Apr 23 21:46:50 2019, MaxMem=   671088640 cpu:               0.2 elap:               0.0
 (Enter /shared/centos7/gaussian/g16/l301.exe)
 Standard basis: 6-311+G(2df,2p) (5D, 7F)
 Ernie: Thresh=  0.10000D-02 Tol=  0.10000D-05 Strict=F.
 There are   219 symmetry adapted cartesian basis functions of A   symmetry.
 There are   199 symmetry adapted basis functions of A   symmetry.
   199 basis functions,   285 primitive gaussians,   219 cartesian basis functions
    17 alpha electrons       16 beta electrons
       nuclear repulsion energy       126.6179865964 Hartrees.
 IExCor= 4336 DFT=T Ex+Corr=M062X ExCW=0 ScaHFX=  0.540000
 ScaDFX=  1.000000  1.000000  1.000000  1.000000 ScalE2=  1.000000  1.000000
 IRadAn=      5 IRanWt=     -1 IRanGd=            0 ICorTp=0 IEmpDi=  4
 NAtoms=   11 NActive=   11 NUniq=   11 SFac= 1.00D+00 NAtFMM=   60 NAOKFM=F Big=F
 Integral buffers will be    131072 words long.
 Raffenetti 2 integral format.
 Two-electron integral symmetry is turned on.
 Leave Link  301 at Tue Apr 23 21:46:50 2019, MaxMem=   671088640 cpu:               1.3 elap:               0.1
 (Enter /shared/centos7/gaussian/g16/l302.exe)
 NPDir=0 NMtPBC=     1 NCelOv=     1 NCel=       1 NClECP=     1 NCelD=      1
         NCelK=      1 NCelE2=     1 NClLst=     1 CellRange=     0.0.
 One-electron integrals computed using PRISM.
 One-electron integral symmetry used in STVInt
 NBasis=   199 RedAO= T EigKep=  7.98D-05  NBF=   199
 NBsUse=   199 1.00D-06 EigRej= -1.00D+00 NBFU=   199
 Precomputing XC quadrature grid using
 IXCGrd= 4 IRadAn=           5 IRanWt=          -1 IRanGd=           0 AccXCQ= 0.00D+00.
 Generated NRdTot=       0 NPtTot=           0 NUsed=           0 NTot=          32
 NSgBfM=   219   219   219   219   219 MxSgAt=    11 MxSgA2=    11.
 Leave Link  302 at Tue Apr 23 21:46:50 2019, MaxMem=   671088640 cpu:               5.6 elap:               0.3
 (Enter /shared/centos7/gaussian/g16/l303.exe)
 DipDrv:  MaxL=1.
 Leave Link  303 at Tue Apr 23 21:46:50 2019, MaxMem=   671088640 cpu:               0.4 elap:               0.0
 (Enter /shared/centos7/gaussian/g16/l401.exe)
 ExpMin= 4.38D-02 ExpMax= 8.59D+03 ExpMxC= 1.30D+03 IAcc=3 IRadAn=         5 AccDes= 0.00D+00
 Harris functional with IExCor= 1009 and IRadAn=       5 diagonalized for initial guess.
 HarFok:  IExCor= 1009 AccDes= 0.00D+00 IRadAn=         5 IDoV= 1 UseB2=F ITyADJ=14
 ICtDFT=  3500011 ScaDFX=  1.000000  1.000000  1.000000  1.000000
 FoFCou: FMM=F IPFlag=           0 FMFlag=      100000 FMFlg1=           0
         NFxFlg=           0 DoJE=T BraDBF=F KetDBF=T FulRan=T
         wScrn=  0.000000 ICntrl=       500 IOpCl=  0 I1Cent=   200000004 NGrid=           0
         NMat0=    1 NMatS0=      1 NMatT0=    0 NMatD0=    1 NMtDS0=    0 NMtDT0=    0
 Petite list used in FoFCou.
 Harris En= -193.577340330863    
 JPrj=0 DoOrth=F DoCkMO=F.
 Initial guess <Sx>= 0.0000 <Sy>= 0.0000 <Sz>= 0.5000 <S**2>= 0.7500 S= 0.5000
 Leave Link  401 at Tue Apr 23 21:46:51 2019, MaxMem=   671088640 cpu:              11.4 elap:               0.6
 (Enter /shared/centos7/gaussian/g16/l502.exe)
 Keep R1 and R2 ints in memory in canonical form, NReq=416958841.
 FoFCou: FMM=F IPFlag=           0 FMFlag=           0 FMFlg1=           0
         NFxFlg=           0 DoJE=F BraDBF=F KetDBF=F FulRan=T
         wScrn=  0.000000 ICntrl=       600 IOpCl=  0 I1Cent=           0 NGrid=           0
         NMat0=    1 NMatS0=  19900 NMatT0=    0 NMatD0=    1 NMtDS0=    0 NMtDT0=    0
 Symmetry not used in FoFCou.
 Two-electron integral symmetry not used.
 UHF open shell SCF:
 Using DIIS extrapolation, IDIIS=  1040.
 NGot=   671088640 LenX=   274956345 LenY=   274907943
 Requested convergence on RMS density matrix=1.00D-08 within 128 cycles.
 Requested convergence on MAX density matrix=1.00D-06.
 Requested convergence on             energy=1.00D-06.
 No special actions if energy rises.

 Cycle   1  Pass 1  IDiag  1:
 E= -193.526399309373    
 DIIS: error= 2.27D-02 at cycle   1 NSaved=   1.
 NSaved= 1 IEnMin= 1 EnMin= -193.526399309373     IErMin= 1 ErrMin= 2.27D-02
 ErrMax= 2.27D-02  0.00D+00 EMaxC= 1.00D-01 BMatC= 6.05D-01 BMatP= 6.05D-01
 IDIUse=3 WtCom= 7.73D-01 WtEn= 2.27D-01
 Coeff-Com:  0.100D+01
 Coeff-En:   0.100D+01
 Coeff:      0.100D+01
 Gap=     0.228 Goal=   None    Shift=    0.000
 Gap=     0.398 Goal=   None    Shift=    0.000
 GapD=    0.228 DampG=1.000 DampE=0.500 DampFc=0.5000 IDamp=-1.
 Damping current iteration by 5.00D-01
 RMSDP=2.18D-03 MaxDP=1.12D-01              OVMax= 1.39D-01

 Cycle   2  Pass 1  IDiag  1:
 E= -193.593413905744     Delta-E=       -0.067014596371 Rises=F Damp=T
 DIIS: error= 5.88D-03 at cycle   2 NSaved=   2.
 NSaved= 2 IEnMin= 2 EnMin= -193.593413905744     IErMin= 2 ErrMin= 5.88D-03
 ErrMax= 5.88D-03  0.00D+00 EMaxC= 1.00D-01 BMatC= 4.79D-02 BMatP= 6.05D-01
 IDIUse=3 WtCom= 9.41D-01 WtEn= 5.88D-02
 Coeff-Com: -0.190D+00 0.119D+01
 Coeff-En:   0.000D+00 0.100D+01
 Coeff:     -0.179D+00 0.118D+01
 Gap=     0.246 Goal=   None    Shift=    0.000
 Gap=     0.385 Goal=   None    Shift=    0.000
 RMSDP=6.43D-04 MaxDP=2.14D-02 DE=-6.70D-02 OVMax= 7.09D-02

 Cycle   3  Pass 1  IDiag  1:
 E= -193.652589545451     Delta-E=       -0.059175639707 Rises=F Damp=F
 DIIS: error= 1.96D-03 at cycle   3 NSaved=   3.
 NSaved= 3 IEnMin= 3 EnMin= -193.652589545451     IErMin= 3 ErrMin= 1.96D-03
 ErrMax= 1.96D-03  0.00D+00 EMaxC= 1.00D-01 BMatC= 4.42D-03 BMatP= 4.79D-02
 IDIUse=3 WtCom= 9.80D-01 WtEn= 1.96D-02
 Coeff-Com: -0.813D-01 0.238D+00 0.844D+00
 Coeff-En:   0.000D+00 0.000D+00 0.100D+01
 Coeff:     -0.797D-01 0.233D+00 0.847D+00
 Gap=     0.249 Goal=   None    Shift=    0.000
 Gap=     0.361 Goal=   None    Shift=    0.000
 RMSDP=1.48D-04 MaxDP=5.50D-03 DE=-5.92D-02 OVMax= 8.86D-03

 Cycle   4  Pass 1  IDiag  1:
 E= -193.653511566134     Delta-E=       -0.000922020683 Rises=F Damp=F
 DIIS: error= 1.28D-03 at cycle   4 NSaved=   4.
 NSaved= 4 IEnMin= 4 EnMin= -193.653511566134     IErMin= 4 ErrMin= 1.28D-03
 ErrMax= 1.28D-03  0.00D+00 EMaxC= 1.00D-01 BMatC= 1.14D-03 BMatP= 4.42D-03
 IDIUse=3 WtCom= 9.87D-01 WtEn= 1.28D-02
 Coeff-Com: -0.264D-01 0.630D-01 0.374D+00 0.589D+00
 Coeff-En:   0.000D+00 0.000D+00 0.000D+00 0.100D+01
 Coeff:     -0.261D-01 0.622D-01 0.370D+00 0.594D+00
 Gap=     0.248 Goal=   None    Shift=    0.000
 Gap=     0.365 Goal=   None    Shift=    0.000
 RMSDP=5.86D-05 MaxDP=3.34D-03 DE=-9.22D-04 OVMax= 1.05D-02

 Cycle   5  Pass 1  IDiag  1:
 E= -193.653775262116     Delta-E=       -0.000263695982 Rises=F Damp=F
 DIIS: error= 4.11D-04 at cycle   5 NSaved=   5.
 NSaved= 5 IEnMin= 5 EnMin= -193.653775262116     IErMin= 5 ErrMin= 4.11D-04
 ErrMax= 4.11D-04  0.00D+00 EMaxC= 1.00D-01 BMatC= 1.94D-04 BMatP= 1.14D-03
 IDIUse=3 WtCom= 9.96D-01 WtEn= 4.11D-03
 Coeff-Com:  0.421D-02-0.176D-01 0.161D-02 0.261D+00 0.751D+00
 Coeff-En:   0.000D+00 0.000D+00 0.000D+00 0.000D+00 0.100D+01
 Coeff:      0.419D-02-0.176D-01 0.161D-02 0.260D+00 0.752D+00
 Gap=     0.248 Goal=   None    Shift=    0.000
 Gap=     0.365 Goal=   None    Shift=    0.000
 RMSDP=3.30D-05 MaxDP=1.14D-03 DE=-2.64D-04 OVMax= 4.26D-03

 Cycle   6  Pass 1  IDiag  1:
 E= -193.653839077914     Delta-E=       -0.000063815798 Rises=F Damp=F
 DIIS: error= 1.99D-04 at cycle   6 NSaved=   6.
 NSaved= 6 IEnMin= 6 EnMin= -193.653839077914     IErMin= 6 ErrMin= 1.99D-04
 ErrMax= 1.99D-04  0.00D+00 EMaxC= 1.00D-01 BMatC= 2.54D-05 BMatP= 1.94D-04
 IDIUse=3 WtCom= 9.98D-01 WtEn= 1.99D-03
 Coeff-Com:  0.694D-02-0.169D-01-0.909D-01-0.480D-01 0.309D-01 0.112D+01
 Coeff-En:   0.000D+00 0.000D+00 0.000D+00 0.000D+00 0.000D+00 0.100D+01
 Coeff:      0.692D-02-0.169D-01-0.908D-01-0.479D-01 0.308D-01 0.112D+01
 Gap=     0.250 Goal=   None    Shift=    0.000
 Gap=     0.365 Goal=   None    Shift=    0.000
 RMSDP=2.90D-05 MaxDP=1.23D-03 DE=-6.38D-05 OVMax= 4.66D-03

 Cycle   7  Pass 1  IDiag  1:
 E= -193.653861964417     Delta-E=       -0.000022886503 Rises=F Damp=F
 DIIS: error= 8.44D-05 at cycle   7 NSaved=   7.
 NSaved= 7 IEnMin= 7 EnMin= -193.653861964417     IErMin= 7 ErrMin= 8.44D-05
 ErrMax= 8.44D-05  0.00D+00 EMaxC= 1.00D-01 BMatC= 8.30D-06 BMatP= 2.54D-05
 IDIUse=1 WtCom= 1.00D+00 WtEn= 0.00D+00
 Coeff-Com:  0.107D-02-0.100D-02-0.328D-01-0.713D-01-0.222D+00 0.445D+00
 Coeff-Com:  0.882D+00
 Coeff:      0.107D-02-0.100D-02-0.328D-01-0.713D-01-0.222D+00 0.445D+00
 Coeff:      0.882D+00
 Gap=     0.250 Goal=   None    Shift=    0.000
 Gap=     0.365 Goal=   None    Shift=    0.000
 RMSDP=1.36D-05 MaxDP=5.46D-04 DE=-2.29D-05 OVMax= 2.35D-03

 Cycle   8  Pass 1  IDiag  1:
 E= -193.653866782758     Delta-E=       -0.000004818340 Rises=F Damp=F
 DIIS: error= 3.09D-05 at cycle   8 NSaved=   8.
 NSaved= 8 IEnMin= 8 EnMin= -193.653866782758     IErMin= 8 ErrMin= 3.09D-05
 ErrMax= 3.09D-05  0.00D+00 EMaxC= 1.00D-01 BMatC= 3.78D-07 BMatP= 8.30D-06
 IDIUse=1 WtCom= 1.00D+00 WtEn= 0.00D+00
 Coeff-Com: -0.113D-02 0.252D-02 0.143D-01 0.144D-01 0.110D-01-0.169D+00
 Coeff-Com: -0.540D-01 0.118D+01
 Coeff:     -0.113D-02 0.252D-02 0.143D-01 0.144D-01 0.110D-01-0.169D+00
 Coeff:     -0.540D-01 0.118D+01
 Gap=     0.250 Goal=   None    Shift=    0.000
 Gap=     0.365 Goal=   None    Shift=    0.000
 RMSDP=3.99D-06 MaxDP=1.87D-04 DE=-4.82D-06 OVMax= 5.64D-04

 Cycle   9  Pass 1  IDiag  1:
 E= -193.653867076478     Delta-E=       -0.000000293721 Rises=F Damp=F
 DIIS: error= 6.37D-06 at cycle   9 NSaved=   9.
 NSaved= 9 IEnMin= 9 EnMin= -193.653867076478     IErMin= 9 ErrMin= 6.37D-06
 ErrMax= 6.37D-06  0.00D+00 EMaxC= 1.00D-01 BMatC= 5.44D-08 BMatP= 3.78D-07
 IDIUse=1 WtCom= 1.00D+00 WtEn= 0.00D+00
 Coeff-Com: -0.385D-03 0.778D-03 0.681D-02 0.104D-01 0.200D-01-0.836D-01
 Coeff-Com: -0.870D-01 0.325D+00 0.808D+00
 Coeff:     -0.385D-03 0.778D-03 0.681D-02 0.104D-01 0.200D-01-0.836D-01
 Coeff:     -0.870D-01 0.325D+00 0.808D+00
 Gap=     0.250 Goal=   None    Shift=    0.000
 Gap=     0.365 Goal=   None    Shift=    0.000
 RMSDP=7.26D-07 MaxDP=3.69D-05 DE=-2.94D-07 OVMax= 9.87D-05

 Cycle  10  Pass 1  IDiag  1:
 E= -193.653867097440     Delta-E=       -0.000000020961 Rises=F Damp=F
 DIIS: error= 3.30D-06 at cycle  10 NSaved=  10.
 NSaved=10 IEnMin=10 EnMin= -193.653867097440     IErMin=10 ErrMin= 3.30D-06
 ErrMax= 3.30D-06  0.00D+00 EMaxC= 1.00D-01 BMatC= 8.00D-09 BMatP= 5.44D-08
 IDIUse=1 WtCom= 1.00D+00 WtEn= 0.00D+00
 Coeff-Com:  0.109D-03-0.244D-03-0.644D-03 0.514D-03 0.196D-02 0.713D-02
 Coeff-Com: -0.106D-01-0.109D+00 0.185D+00 0.926D+00
 Coeff:      0.109D-03-0.244D-03-0.644D-03 0.514D-03 0.196D-02 0.713D-02
 Coeff:     -0.106D-01-0.109D+00 0.185D+00 0.926D+00
 Gap=     0.250 Goal=   None    Shift=    0.000
 Gap=     0.365 Goal=   None    Shift=    0.000
 RMSDP=3.15D-07 MaxDP=1.13D-05 DE=-2.10D-08 OVMax= 3.17D-05

 Cycle  11  Pass 1  IDiag  1:
 E= -193.653867100717     Delta-E=       -0.000000003278 Rises=F Damp=F
 DIIS: error= 8.77D-07 at cycle  11 NSaved=  11.
 NSaved=11 IEnMin=11 EnMin= -193.653867100717     IErMin=11 ErrMin= 8.77D-07
 ErrMax= 8.77D-07  0.00D+00 EMaxC= 1.00D-01 BMatC= 6.38D-10 BMatP= 8.00D-09
 IDIUse=1 WtCom= 1.00D+00 WtEn= 0.00D+00
 Coeff-Com:  0.556D-04-0.120D-03-0.785D-03-0.847D-03-0.193D-02 0.953D-02
 Coeff-Com:  0.793D-02-0.509D-01-0.685D-01 0.147D+00 0.959D+00
 Coeff:      0.556D-04-0.120D-03-0.785D-03-0.847D-03-0.193D-02 0.953D-02
 Coeff:      0.793D-02-0.509D-01-0.685D-01 0.147D+00 0.959D+00
 Gap=     0.250 Goal=   None    Shift=    0.000
 Gap=     0.365 Goal=   None    Shift=    0.000
 RMSDP=1.11D-07 MaxDP=3.67D-06 DE=-3.28D-09 OVMax= 8.07D-06

 Cycle  12  Pass 1  IDiag  1:
 E= -193.653867101007     Delta-E=       -0.000000000290 Rises=F Damp=F
 DIIS: error= 1.74D-07 at cycle  12 NSaved=  12.
 NSaved=12 IEnMin=12 EnMin= -193.653867101007     IErMin=12 ErrMin= 1.74D-07
 ErrMax= 1.74D-07  0.00D+00 EMaxC= 1.00D-01 BMatC= 3.09D-11 BMatP= 6.38D-10
 IDIUse=1 WtCom= 1.00D+00 WtEn= 0.00D+00
 Coeff-Com: -0.854D-05 0.174D-04 0.401D-04 0.122D-04-0.709D-04-0.499D-03
 Coeff-Com:  0.593D-03 0.717D-02-0.163D-01-0.638D-01 0.165D-01 0.106D+01
 Coeff:     -0.854D-05 0.174D-04 0.401D-04 0.122D-04-0.709D-04-0.499D-03
 Coeff:      0.593D-03 0.717D-02-0.163D-01-0.638D-01 0.165D-01 0.106D+01
 Gap=     0.250 Goal=   None    Shift=    0.000
 Gap=     0.365 Goal=   None    Shift=    0.000
 RMSDP=3.41D-08 MaxDP=1.06D-06 DE=-2.90D-10 OVMax= 2.33D-06

 Cycle  13  Pass 1  IDiag  1:
 E= -193.653867101025     Delta-E=       -0.000000000018 Rises=F Damp=F
 DIIS: error= 4.55D-08 at cycle  13 NSaved=  13.
 NSaved=13 IEnMin=13 EnMin= -193.653867101025     IErMin=13 ErrMin= 4.55D-08
 ErrMax= 4.55D-08  0.00D+00 EMaxC= 1.00D-01 BMatC= 1.64D-12 BMatP= 3.09D-11
 IDIUse=1 WtCom= 1.00D+00 WtEn= 0.00D+00
 Coeff-Com: -0.179D-05 0.409D-05 0.292D-04 0.327D-04 0.729D-04-0.385D-03
 Coeff-Com: -0.306D-03 0.197D-02 0.419D-02-0.634D-02-0.490D-01-0.420D-01
 Coeff-Com:  0.109D+01
 Coeff:     -0.179D-05 0.409D-05 0.292D-04 0.327D-04 0.729D-04-0.385D-03
 Coeff:     -0.306D-03 0.197D-02 0.419D-02-0.634D-02-0.490D-01-0.420D-01
 Coeff:      0.109D+01
 Gap=     0.250 Goal=   None    Shift=    0.000
 Gap=     0.365 Goal=   None    Shift=    0.000
 RMSDP=7.86D-09 MaxDP=2.53D-07 DE=-1.81D-11 OVMax= 5.54D-07

 SCF Done:  E(UM062X) =  -193.653867101     A.U. after   13 cycles
            NFock= 13  Conv=0.79D-08     -V/T= 2.0038
 <Sx>= 0.0000 <Sy>= 0.0000 <Sz>= 0.5000 <S**2>= 0.7545 S= 0.5023
 <L.S>= 0.000000000000E+00
 KE= 1.929289091694D+02 PE=-7.049947712661D+02 EE= 1.917940083994D+02
 Annihilation of the first spin contaminant:
 S**2 before annihilation     0.7545,   after     0.7500
 Leave Link  502 at Tue Apr 23 21:47:17 2019, MaxMem=   671088640 cpu:             386.8 elap:              26.4
 (Enter /shared/centos7/gaussian/g16/l801.exe)
 DoSCS=F DFT=T ScalE2(SS,OS)=  1.000000  1.000000
 Range of M.O.s used for correlation:     1   199
 NBasis=   199 NAE=    17 NBE=    16 NFC=     0 NFV=     0
 NROrb=    199 NOA=    17 NOB=    16 NVA=   182 NVB=   183

 **** Warning!!: The largest alpha MO coefficient is  0.40060177D+02


 **** Warning!!: The largest beta MO coefficient is  0.38140719D+02

 Leave Link  801 at Tue Apr 23 21:47:17 2019, MaxMem=   671088640 cpu:               0.4 elap:               0.0
 (Enter /shared/centos7/gaussian/g16/l1101.exe)
 Using compressed storage, NAtomX=    11.
 Will process     12 centers per pass.
 Leave Link 1101 at Tue Apr 23 21:47:18 2019, MaxMem=   671088640 cpu:               5.7 elap:               0.3
 (Enter /shared/centos7/gaussian/g16/l1102.exe)
 Symmetrizing basis deriv contribution to polar:
 IMax=3 JMax=2 DiffMx= 0.00D+00
 Leave Link 1102 at Tue Apr 23 21:47:18 2019, MaxMem=   671088640 cpu:               0.4 elap:               0.0
 (Enter /shared/centos7/gaussian/g16/l1110.exe)
 Forming Gx(P) for the SCF density, NAtomX=    11.
 Integral derivatives from FoFJK, PRISM(SPDF).
 Do as many integral derivatives as possible in FoFJK.
 G2DrvN: MDV=     671087712.
 G2DrvN: will do    12 centers at a time, making    1 passes.
 Calling FoFCou, ICntrl=  3107 FMM=F I1Cent=   0 AccDes= 0.00D+00.
 FoFJK:  IHMeth= 1 ICntrl=    3107 DoSepK=F KAlg= 0 I1Cent=           0 FoldK=F
 IRaf=         0 NMat=       1 IRICut=       1 DoRegI=T DoRafI=F ISym2E= 0 IDoP0=0 IntGTp=1.
 FoFCou: FMM=F IPFlag=           0 FMFlag=      100000 FMFlg1=           0
         NFxFlg=           0 DoJE=F BraDBF=F KetDBF=F FulRan=T
         wScrn=  0.000000 ICntrl=      3107 IOpCl=  1 I1Cent=           0 NGrid=           0
         NMat0=    1 NMatS0=      1 NMatT0=    0 NMatD0=    1 NMtDS0=    0 NMtDT0=    0
 Symmetry not used in FoFCou.
 End of G2Drv F.D. properties file   721 does not exist.
 End of G2Drv F.D. properties file   722 does not exist.
 End of G2Drv F.D. properties file   788 does not exist.
 Leave Link 1110 at Tue Apr 23 21:47:56 2019, MaxMem=   671088640 cpu:             749.3 elap:              37.9
 (Enter /shared/centos7/gaussian/g16/l1002.exe)
 Minotr:  UHF open shell wavefunction.
          IDoAtm=11111111111
          Direct CPHF calculation.
          Differentiating once with respect to nuclear coordinates.
          Requested convergence is 1.0D-08 RMS, and 1.0D-07 maximum.
          Secondary convergence is 1.0D-12 RMS, and 1.0D-12 maximum.
          NewPWx=T KeepS1=F KeepF1=F KeepIn=T MapXYZ=F SortEE=F KeepMc=T.
         3349 words used for storage of precomputed grid.
 Keep R1 and R2 ints in memory in canonical form, NReq=416899978.
 FoFCou: FMM=F IPFlag=           0 FMFlag=           0 FMFlg1=           0
         NFxFlg=           0 DoJE=F BraDBF=F KetDBF=F FulRan=T
         wScrn=  0.000000 ICntrl=       600 IOpCl=  0 I1Cent=           0 NGrid=           0
         NMat0=    1 NMatS0=  19900 NMatT0=    0 NMatD0=    1 NMtDS0=    0 NMtDT0=    0
 Symmetry not used in FoFCou.
 Two-electron integral symmetry not used.
          MDV=     671088640 using IRadAn=       1.
          Solving linear equations simultaneously, MaxMat=       0.
          There are    36 degrees of freedom in the 1st order CPHF.  IDoFFX=6 NUNeed=     0.
     30 vectors produced by pass  0 Test12= 1.67D-14 2.78D-09 XBig12= 1.52D-01 6.41D-02.
 AX will form    30 AO Fock derivatives at one time.
     30 vectors produced by pass  1 Test12= 1.67D-14 2.78D-09 XBig12= 1.07D-02 2.26D-02.
     30 vectors produced by pass  2 Test12= 1.67D-14 2.78D-09 XBig12= 6.03D-04 4.87D-03.
     30 vectors produced by pass  3 Test12= 1.67D-14 2.78D-09 XBig12= 8.83D-06 4.81D-04.
     30 vectors produced by pass  4 Test12= 1.67D-14 2.78D-09 XBig12= 1.26D-07 4.37D-05.
     30 vectors produced by pass  5 Test12= 1.67D-14 2.78D-09 XBig12= 1.81D-09 4.60D-06.
     27 vectors produced by pass  6 Test12= 1.67D-14 2.78D-09 XBig12= 1.43D-11 4.24D-07.
     10 vectors produced by pass  7 Test12= 1.67D-14 2.78D-09 XBig12= 9.55D-14 2.98D-08.
 InvSVY:  IOpt=1 It=  1 EMax= 1.55D-15
 Solved reduced A of dimension   217 with    30 vectors.
 End of Minotr F.D. properties file   721 does not exist.
 End of Minotr F.D. properties file   722 does not exist.
 End of Minotr F.D. properties file   788 does not exist.
 Leave Link 1002 at Tue Apr 23 21:48:44 2019, MaxMem=   671088640 cpu:             973.5 elap:              48.7
 (Enter /shared/centos7/gaussian/g16/l601.exe)
 Copying SCF densities to generalized density rwf, IOpCl= 1 IROHF=0.

 **********************************************************************

            Population analysis using the SCF density.

 **********************************************************************

 Orbital symmetries:
 Alpha Orbitals:
       Occupied  (A) (A) (A) (A) (A) (A) (A) (A) (A) (A) (A) (A)
                 (A) (A) (A) (A) (A)
       Virtual   (A) (A) (A) (A) (A) (A) (A) (A) (A) (A) (A) (A)
                 (A) (A) (A) (A) (A) (A) (A) (A) (A) (A) (A) (A)
                 (A) (A) (A) (A) (A) (A) (A) (A) (A) (A) (A) (A)
                 (A) (A) (A) (A) (A) (A) (A) (A) (A) (A) (A) (A)
                 (A) (A) (A) (A) (A) (A) (A) (A) (A) (A) (A) (A)
                 (A) (A) (A) (A) (A) (A) (A) (A) (A) (A) (A) (A)
                 (A) (A) (A) (A) (A) (A) (A) (A) (A) (A) (A) (A)
                 (A) (A) (A) (A) (A) (A) (A) (A) (A) (A) (A) (A)
                 (A) (A) (A) (A) (A) (A) (A) (A) (A) (A) (A) (A)
                 (A) (A) (A) (A) (A) (A) (A) (A) (A) (A) (A) (A)
                 (A) (A) (A) (A) (A) (A) (A) (A) (A) (A) (A) (A)
                 (A) (A) (A) (A) (A) (A) (A) (A) (A) (A) (A) (A)
                 (A) (A) (A) (A) (A) (A) (A) (A) (A) (A) (A) (A)
                 (A) (A) (A) (A) (A) (A) (A) (A) (A) (A) (A) (A)
                 (A) (A) (A) (A) (A) (A) (A) (A) (A) (A) (A) (A)
                 (A) (A)
 Beta  Orbitals:
       Occupied  (A) (A) (A) (A) (A) (A) (A) (A) (A) (A) (A) (A)
                 (A) (A) (A) (A)
       Virtual   (A) (A) (A) (A) (A) (A) (A) (A) (A) (A) (A) (A)
                 (A) (A) (A) (A) (A) (A) (A) (A) (A) (A) (A) (A)
                 (A) (A) (A) (A) (A) (A) (A) (A) (A) (A) (A) (A)
                 (A) (A) (A) (A) (A) (A) (A) (A) (A) (A) (A) (A)
                 (A) (A) (A) (A) (A) (A) (A) (A) (A) (A) (A) (A)
                 (A) (A) (A) (A) (A) (A) (A) (A) (A) (A) (A) (A)
                 (A) (A) (A) (A) (A) (A) (A) (A) (A) (A) (A) (A)
                 (A) (A) (A) (A) (A) (A) (A) (A) (A) (A) (A) (A)
                 (A) (A) (A) (A) (A) (A) (A) (A) (A) (A) (A) (A)
                 (A) (A) (A) (A) (A) (A) (A) (A) (A) (A) (A) (A)
                 (A) (A) (A) (A) (A) (A) (A) (A) (A) (A) (A) (A)
                 (A) (A) (A) (A) (A) (A) (A) (A) (A) (A) (A) (A)
                 (A) (A) (A) (A) (A) (A) (A) (A) (A) (A) (A) (A)
                 (A) (A) (A) (A) (A) (A) (A) (A) (A) (A) (A) (A)
                 (A) (A) (A) (A) (A) (A) (A) (A) (A) (A) (A) (A)
                 (A) (A) (A)
 The electronic state is 2-A.
 Alpha  occ. eigenvalues --  -19.65523 -10.59171 -10.57540 -10.53048  -1.19533
 Alpha  occ. eigenvalues --   -0.87474  -0.75862  -0.70132  -0.57980  -0.56804
 Alpha  occ. eigenvalues --   -0.55241  -0.47135  -0.45907  -0.44050  -0.41043
 Alpha  occ. eigenvalues --   -0.39745  -0.23040
 Alpha virt. eigenvalues --    0.01925   0.03528   0.04107   0.04840   0.05876
 Alpha virt. eigenvalues --    0.07212   0.08350   0.09142   0.09734   0.11074
 Alpha virt. eigenvalues --    0.13515   0.15065   0.18408   0.18925   0.20113
 Alpha virt. eigenvalues --    0.21497   0.22880   0.23532   0.24858   0.25628
 Alpha virt. eigenvalues --    0.28074   0.28275   0.28494   0.31642   0.34696
 Alpha virt. eigenvalues --    0.37158   0.41517   0.44690   0.47467   0.48018
 Alpha virt. eigenvalues --    0.49937   0.52470   0.53389   0.54839   0.55684
 Alpha virt. eigenvalues --    0.56822   0.58019   0.60330   0.61720   0.62129
 Alpha virt. eigenvalues --    0.64118   0.65845   0.68653   0.70025   0.76793
 Alpha virt. eigenvalues --    0.78178   0.79020   0.82600   0.85571   0.86509
 Alpha virt. eigenvalues --    0.90855   0.91591   0.96099   0.97539   1.02030
 Alpha virt. eigenvalues --    1.04536   1.06793   1.09133   1.12361   1.13270
 Alpha virt. eigenvalues --    1.15173   1.17117   1.17651   1.19857   1.21465
 Alpha virt. eigenvalues --    1.26335   1.27474   1.29298   1.31224   1.34741
 Alpha virt. eigenvalues --    1.36012   1.36524   1.39495   1.40563   1.44002
 Alpha virt. eigenvalues --    1.45512   1.48262   1.50339   1.50762   1.55411
 Alpha virt. eigenvalues --    1.57663   1.60184   1.66684   1.72908   1.78272
 Alpha virt. eigenvalues --    1.92071   2.06957   2.12901   2.27680   2.33730
 Alpha virt. eigenvalues --    2.40278   2.42956   2.48365   2.54089   2.57318
 Alpha virt. eigenvalues --    2.60451   2.68177   2.79091   2.83450   2.84565
 Alpha virt. eigenvalues --    2.86365   2.94657   2.96210   2.98449   3.02618
 Alpha virt. eigenvalues --    3.03358   3.07200   3.09456   3.10374   3.11543
 Alpha virt. eigenvalues --    3.15858   3.17461   3.19611   3.23053   3.24782
 Alpha virt. eigenvalues --    3.29047   3.33699   3.35520   3.36805   3.39903
 Alpha virt. eigenvalues --    3.43155   3.48856   3.50282   3.54480   3.55400
 Alpha virt. eigenvalues --    3.59281   3.61722   3.63621   3.67061   3.75799
 Alpha virt. eigenvalues --    3.80080   3.84989   3.89303   3.91917   3.93255
 Alpha virt. eigenvalues --    3.98457   3.99415   4.02898   4.06800   4.07285
 Alpha virt. eigenvalues --    4.14279   4.16157   4.18089   4.19154   4.21677
 Alpha virt. eigenvalues --    4.24445   4.25432   4.27812   4.40222   4.43446
 Alpha virt. eigenvalues --    4.45597   4.48593   4.55453   4.56320   4.61623
 Alpha virt. eigenvalues --    4.65092   5.11044   5.15367   5.18697   5.25127
 Alpha virt. eigenvalues --    5.29507   5.42253   5.50129   5.50755   5.56414
 Alpha virt. eigenvalues --    5.59225   5.61908   5.67122   5.82313   5.90051
 Alpha virt. eigenvalues --    6.28581   6.45241   6.81199   7.11638   7.19681
 Alpha virt. eigenvalues --    7.28192   7.69745   7.71789  24.35326  24.46541
 Alpha virt. eigenvalues --   24.48334  50.16891
  Beta  occ. eigenvalues --  -19.65088 -10.59180 -10.56847 -10.53049  -1.18137
  Beta  occ. eigenvalues --   -0.87068  -0.74171  -0.68848  -0.56844  -0.55543
  Beta  occ. eigenvalues --   -0.54283  -0.45904  -0.45159  -0.43627  -0.40375
  Beta  occ. eigenvalues --   -0.37609
  Beta virt. eigenvalues --   -0.01111   0.01686   0.03175   0.04048   0.05330
  Beta virt. eigenvalues --    0.05921   0.07073   0.08107   0.09220   0.09589
  Beta virt. eigenvalues --    0.11331   0.13429   0.13929   0.18478   0.19017
  Beta virt. eigenvalues --    0.20413   0.22275   0.22716   0.24078   0.25088
  Beta virt. eigenvalues --    0.25561   0.27777   0.28520   0.28790   0.32363
  Beta virt. eigenvalues --    0.34816   0.37234   0.41560   0.44765   0.47697
  Beta virt. eigenvalues --    0.48432   0.50297   0.53107   0.53717   0.54847
  Beta virt. eigenvalues --    0.55653   0.57082   0.57965   0.60722   0.61441
  Beta virt. eigenvalues --    0.62919   0.64586   0.65791   0.68741   0.70539
  Beta virt. eigenvalues --    0.76696   0.77814   0.79165   0.82812   0.85526
  Beta virt. eigenvalues --    0.86446   0.90894   0.91525   0.96301   0.97099
  Beta virt. eigenvalues --    1.01475   1.04605   1.07166   1.09069   1.12337
  Beta virt. eigenvalues --    1.13310   1.15257   1.17124   1.17675   1.19918
  Beta virt. eigenvalues --    1.21581   1.26393   1.27994   1.29490   1.31392
  Beta virt. eigenvalues --    1.34802   1.36200   1.36723   1.40020   1.40618
  Beta virt. eigenvalues --    1.44019   1.45282   1.48253   1.50282   1.51592
  Beta virt. eigenvalues --    1.55932   1.58097   1.60235   1.66908   1.73155
  Beta virt. eigenvalues --    1.78514   1.93333   2.07216   2.13251   2.28485
  Beta virt. eigenvalues --    2.34547   2.40432   2.43158   2.48794   2.55020
  Beta virt. eigenvalues --    2.57855   2.60887   2.69010   2.79950   2.84313
  Beta virt. eigenvalues --    2.85698   2.89767   2.95821   2.99818   3.02532
  Beta virt. eigenvalues --    3.04521   3.04670   3.08993   3.09949   3.12973
  Beta virt. eigenvalues --    3.13190   3.17276   3.19264   3.21613   3.26040
  Beta virt. eigenvalues --    3.27847   3.31098   3.35540   3.38933   3.39164
  Beta virt. eigenvalues --    3.41420   3.45583   3.50747   3.52040   3.55030
  Beta virt. eigenvalues --    3.55745   3.59982   3.62337   3.66204   3.68587
  Beta virt. eigenvalues --    3.77538   3.80085   3.86388   3.90953   3.92571
  Beta virt. eigenvalues --    3.94851   3.98712   4.01305   4.03440   4.07174
  Beta virt. eigenvalues --    4.08164   4.16530   4.17932   4.19841   4.21770
  Beta virt. eigenvalues --    4.22103   4.24930   4.26215   4.28931   4.40709
  Beta virt. eigenvalues --    4.44104   4.45845   4.48647   4.55534   4.56365
  Beta virt. eigenvalues --    4.62789   4.66404   5.11421   5.18357   5.21855
  Beta virt. eigenvalues --    5.26157   5.30899   5.43269   5.51212   5.53161
  Beta virt. eigenvalues --    5.57738   5.60351   5.62581   5.67982   5.82782
  Beta virt. eigenvalues --    5.90925   6.29005   6.45478   6.81962   7.12666
  Beta virt. eigenvalues --    7.20838   7.29266   7.70172   7.71719  24.35324
  Beta virt. eigenvalues --   24.47641  24.48523  50.16586
          Condensed to atoms (all electrons):
               1          2          3          4          5          6
     1  O    8.198027   0.118054  -0.098366   0.056961  -0.049316  -0.044678
     2  C    0.118054   5.057597   0.310448  -0.087299   0.447659   0.435607
     3  C   -0.098366   0.310448   5.075955  -0.007913  -0.047419  -0.037666
     4  C    0.056961  -0.087299  -0.007913   5.469398  -0.003127   0.010451
     5  H   -0.049316   0.447659  -0.047419  -0.003127   0.564726  -0.052379
     6  H   -0.044678   0.435607  -0.037666   0.010451  -0.052379   0.548741
     7  H   -0.002679  -0.028922   0.404449  -0.000258  -0.007900   0.006259
     8  H   -0.002437  -0.029340   0.405263  -0.000839   0.006541  -0.008118
     9  H    0.011668  -0.034586   0.414458   0.001359  -0.003775  -0.003692
    10  H   -0.051134   0.005084   0.001413   0.440347   0.000179  -0.000042
    11  H   -0.044148   0.004542  -0.006369   0.417582   0.005751  -0.003654
               7          8          9         10         11
     1  O   -0.002679  -0.002437   0.011668  -0.051134  -0.044148
     2  C   -0.028922  -0.029340  -0.034586   0.005084   0.004542
     3  C    0.404449   0.405263   0.414458   0.001413  -0.006369
     4  C   -0.000258  -0.000839   0.001359   0.440347   0.417582
     5  H   -0.007900   0.006541  -0.003775   0.000179   0.005751
     6  H    0.006259  -0.008118  -0.003692  -0.000042  -0.003654
     7  H    0.543629  -0.029946  -0.026763  -0.000006   0.000022
     8  H   -0.029946   0.541095  -0.026486   0.000000   0.000011
     9  H   -0.026763  -0.026486   0.539898   0.000014   0.000017
    10  H   -0.000006   0.000000   0.000014   0.475912  -0.030094
    11  H    0.000022   0.000011   0.000017  -0.030094   0.515447
          Atomic-Atomic Spin Densities.
               1          2          3          4          5          6
     1  O    0.299893   0.017680  -0.001271  -0.240065  -0.007744  -0.008165
     2  C    0.017680   0.025464  -0.018342  -0.011216   0.006193  -0.001128
     3  C   -0.001271  -0.018342   0.013645   0.004793  -0.004071   0.002620
     4  C   -0.240065  -0.011216   0.004793   1.236479   0.000581   0.016341
     5  H   -0.007744   0.006193  -0.004071   0.000581   0.008698  -0.004218
     6  H   -0.008165  -0.001128   0.002620   0.016341  -0.004218  -0.001718
     7  H   -0.000660   0.003496  -0.002903  -0.000037   0.000260  -0.000294
     8  H    0.000104   0.000463  -0.000464  -0.000092   0.000047  -0.000044
     9  H   -0.000013  -0.000769   0.000711  -0.000091  -0.000043   0.000022
    10  H    0.001320   0.000135  -0.000020  -0.003486   0.000279  -0.000153
    11  H   -0.002533   0.003884  -0.002237  -0.015176   0.003228  -0.001890
               7          8          9         10         11
     1  O   -0.000660   0.000104  -0.000013   0.001320  -0.002533
     2  C    0.003496   0.000463  -0.000769   0.000135   0.003884
     3  C   -0.002903  -0.000464   0.000711  -0.000020  -0.002237
     4  C   -0.000037  -0.000092  -0.000091  -0.003486  -0.015176
     5  H    0.000260   0.000047  -0.000043   0.000279   0.003228
     6  H   -0.000294  -0.000044   0.000022  -0.000153  -0.001890
     7  H   -0.000194  -0.000075   0.000033   0.000008   0.000041
     8  H   -0.000075  -0.000045   0.000061   0.000006   0.000001
     9  H    0.000033   0.000061  -0.000266  -0.000000  -0.000005
    10  H    0.000008   0.000006  -0.000000  -0.037334   0.005465
    11  H    0.000041   0.000001  -0.000005   0.005465  -0.025749
 Mulliken charges and spin densities:
               1          2
     1  O   -0.091952   0.058545
     2  C   -0.198846   0.025859
     3  C   -0.414254  -0.007541
     4  C   -0.296662   0.988031
     5  H    0.139061   0.003209
     6  H    0.149172   0.001373
     7  H    0.142115  -0.000326
     8  H    0.144257  -0.000039
     9  H    0.127887  -0.000361
    10  H    0.158327  -0.033780
    11  H    0.140894  -0.034970
 Sum of Mulliken charges =  -0.00000   1.00000
 Mulliken charges and spin densities with hydrogens summed into heavy atoms:
               1          2
     1  O   -0.091952   0.058545
     2  C    0.089387   0.030441
     3  C    0.000006  -0.008267
     4  C    0.002559   0.919281
 APT charges:
               1
     1  O   -0.032243
     2  C   -0.581510
     3  C   -1.137824
     4  C   -1.008466
     5  H    0.341637
     6  H    0.357613
     7  H    0.327180
     8  H    0.333385
     9  H    0.470736
    10  H    0.567771
    11  H    0.361720
 Sum of APT charges =  -0.00000
 APT charges with hydrogens summed into heavy atoms:
               1
     1  O   -0.032243
     2  C    0.117741
     3  C   -0.006523
     4  C   -0.078975
 Electronic spatial extent (au):  <R**2>=            345.4772
 Charge=             -0.0000 electrons
 Dipole moment (field-independent basis, Debye):
    X=             -0.8135    Y=              1.0903    Z=             -0.3458  Tot=              1.4036
 Quadrupole moment (field-independent basis, Debye-Ang):
   XX=            -24.7336   YY=            -26.1826   ZZ=            -27.2256
   XY=             -0.2290   XZ=             -0.9196   YZ=             -0.3209
 Traceless Quadrupole moment (field-independent basis, Debye-Ang):
   XX=              1.3137   YY=             -0.1353   ZZ=             -1.1784
   XY=             -0.2290   XZ=             -0.9196   YZ=             -0.3209
 Octapole moment (field-independent basis, Debye-Ang**2):
  XXX=              2.3093  YYY=             -0.8725  ZZZ=             -0.7038  XYY=              0.5998
  XXY=             -2.1290  XXZ=             -2.0307  XZZ=             -3.2385  YZZ=             -0.7490
  YYZ=             -0.4971  XYZ=             -0.6719
 Hexadecapole moment (field-independent basis, Debye-Ang**3):
 XXXX=           -357.7586 YYYY=            -71.5230 ZZZZ=            -45.3910 XXXY=            -11.2086
 XXXZ=             -5.5044 YYYX=             -1.6220 YYYZ=             -1.0880 ZZZX=             -1.4860
 ZZZY=             -0.1055 XXYY=            -67.9804 XXZZ=            -75.3781 YYZZ=            -18.3301
 XXYZ=             -1.4639 YYXZ=             -1.3720 ZZXY=              0.4215
 N-N= 1.266179865964D+02 E-N=-7.049947712095D+02  KE= 1.929289091694D+02
  Exact polarizability:   0.000   0.000   0.000   0.000   0.000   0.000
 Approx polarizability:  49.942  -0.257  46.058  -0.050   0.116  44.507
                          Isotropic Fermi Contact Couplings
        Atom                 a.u.       MegaHertz       Gauss      10(-4) cm-1
     1  O(17)              0.03596     -21.79633      -7.77747      -7.27047
     2  C(13)             -0.00256      -2.87823      -1.02702      -0.96007
     3  C(13)             -0.00131      -1.47006      -0.52455      -0.49036
     4  C(13)              0.18723     210.48782      75.10729      70.21118
     5  H(1)               0.00186       8.30236       2.96249       2.76937
     6  H(1)               0.00162       7.23306       2.58094       2.41269
     7  H(1)               0.00006       0.27273       0.09732       0.09097
     8  H(1)              -0.00003      -0.11659      -0.04160      -0.03889
     9  H(1)              -0.00029      -1.28183      -0.45739      -0.42757
    10  H(1)              -0.01074     -48.00068     -17.12784     -16.01130
    11  H(1)              -0.00936     -41.83210     -14.92673     -13.95369
 --------------------------------------------------------
       Center         ----  Spin Dipole Couplings  ----
                      3XX-RR        3YY-RR        3ZZ-RR
 --------------------------------------------------------
     1   Atom       -0.456549     -0.434991      0.891540
     2   Atom        0.014581     -0.002994     -0.011587
     3   Atom        0.006326     -0.004004     -0.002322
     4   Atom       -0.494342     -0.450475      0.944817
     5   Atom        0.005252     -0.000418     -0.004834
     6   Atom        0.008692     -0.001871     -0.006821
     7   Atom        0.005249     -0.002963     -0.002286
     8   Atom        0.005412     -0.002799     -0.002614
     9   Atom        0.003489     -0.001773     -0.001716
    10   Atom        0.001615      0.002785     -0.004401
    11   Atom       -0.062961      0.056810      0.006151
 --------------------------------------------------------
                        XY            XZ            YZ
 --------------------------------------------------------
     1   Atom       -0.025020      0.102854      0.117168
     2   Atom       -0.010416      0.003662     -0.001350
     3   Atom       -0.000633      0.000530      0.000390
     4   Atom        0.006326      0.073867      0.232349
     5   Atom       -0.008390      0.005563     -0.003709
     6   Atom       -0.008748     -0.005137      0.003802
     7   Atom        0.001406      0.002469      0.000488
     8   Atom        0.001906     -0.001776     -0.000284
     9   Atom       -0.000900      0.000186      0.000019
    10   Atom       -0.066438     -0.002408      0.012492
    11   Atom        0.016818     -0.003872     -0.023808
 --------------------------------------------------------


 ---------------------------------------------------------------------------------
              Anisotropic Spin Dipole Couplings in Principal Axis System
 ---------------------------------------------------------------------------------

       Atom             a.u.   MegaHertz   Gauss  10(-4) cm-1        Axes

              Baa    -0.4897    35.432    12.643    11.819  0.7935  0.5986 -0.1099
     1 O(17)  Bbb    -0.4195    30.356    10.832    10.126 -0.6041  0.7965 -0.0238
              Bcc     0.9092   -65.787   -23.475   -21.944  0.0733  0.0853  0.9937
 
              Baa    -0.0121    -1.622    -0.579    -0.541 -0.1420 -0.0157  0.9897
     2 C(13)  Bbb    -0.0078    -1.048    -0.374    -0.350  0.4108  0.9088  0.0733
              Bcc     0.0199     2.671     0.953     0.891  0.9006 -0.4170  0.1226
 
              Baa    -0.0041    -0.556    -0.198    -0.185  0.0703  0.9710 -0.2286
     3 C(13)  Bbb    -0.0023    -0.302    -0.108    -0.101 -0.0429  0.2319  0.9718
              Bcc     0.0064     0.858     0.306     0.286  0.9966 -0.0585  0.0580
 
              Baa    -0.5005   -67.168   -23.967   -22.405  0.9109  0.3976 -0.1105
     4 C(13)  Bbb    -0.4856   -65.169   -23.254   -21.738 -0.4096  0.9036 -0.1256
              Bcc     0.9862   132.336    47.221    44.143  0.0499  0.1597  0.9859
 
              Baa    -0.0073    -3.895    -1.390    -1.299 -0.4089 -0.0067  0.9125
     5 H(1)   Bbb    -0.0064    -3.407    -1.216    -1.136  0.4953  0.8382  0.2281
              Bcc     0.0137     7.301     2.605     2.435  0.7665 -0.5453  0.3395
 
              Baa    -0.0089    -4.750    -1.695    -1.584  0.0548 -0.4214  0.9052
     6 H(1)   Bbb    -0.0065    -3.488    -1.244    -1.163  0.5511  0.7688  0.3245
              Bcc     0.0154     8.237     2.939     2.748  0.8327 -0.4811 -0.2743
 
              Baa    -0.0032    -1.720    -0.614    -0.574 -0.0582  0.9401 -0.3358
     7 H(1)   Bbb    -0.0030    -1.602    -0.571    -0.534 -0.3201  0.3010  0.8983
              Bcc     0.0062     3.322     1.185     1.108  0.9456  0.1597  0.2834
 
              Baa    -0.0033    -1.738    -0.620    -0.580 -0.2680  0.9006 -0.3423
     8 H(1)   Bbb    -0.0029    -1.569    -0.560    -0.523  0.1082  0.3812  0.9182
              Bcc     0.0062     3.307     1.180     1.103  0.9573  0.2091 -0.1996
 
              Baa    -0.0019    -1.032    -0.368    -0.344  0.1670  0.9594 -0.2273
     9 H(1)   Bbb    -0.0017    -0.913    -0.326    -0.304  0.0050  0.2297  0.9733
              Bcc     0.0036     1.945     0.694     0.649  0.9859 -0.1637  0.0335
 
              Baa    -0.0651   -34.723   -12.390   -11.582  0.6987  0.7057 -0.1175
    10 H(1)   Bbb    -0.0051    -2.704    -0.965    -0.902  0.1828 -0.0172  0.9830
              Bcc     0.0701    37.427    13.355    12.484 -0.6917  0.7083  0.1410
 
              Baa    -0.0653   -34.832   -12.429   -11.619  0.9908 -0.1348  0.0088
    11 H(1)   Bbb    -0.0032    -1.695    -0.605    -0.565  0.0405  0.3588  0.9326
              Bcc     0.0685    36.526    13.034    12.184  0.1288  0.9237 -0.3609
 

 ---------------------------------------------------------------------------------

 No NMR shielding tensors so no spin-rotation constants.
 Leave Link  601 at Tue Apr 23 21:48:45 2019, MaxMem=   671088640 cpu:               7.4 elap:               0.4
 (Enter /shared/centos7/gaussian/g16/l701.exe)
 ... and contract with generalized density number  0.
 Compute integral second derivatives.
 Leave Link  701 at Tue Apr 23 21:48:45 2019, MaxMem=   671088640 cpu:               5.3 elap:               0.3
 (Enter /shared/centos7/gaussian/g16/l702.exe)
 L702 exits ... SP integral derivatives will be done elsewhere.
 Leave Link  702 at Tue Apr 23 21:48:45 2019, MaxMem=   671088640 cpu:               0.3 elap:               0.0
 (Enter /shared/centos7/gaussian/g16/l703.exe)
 Integral derivatives from FoFJK, PRISM(SPDF).
 Compute integral second derivatives, UseDBF=F ICtDFT=           0.
 Calling FoFJK, ICntrl=    100147 FMM=F ISym2X=0 I1Cent= 0 IOpClX= 1 NMat=1 NMatS=1 NMatT=0.
 FoFJK:  IHMeth= 1 ICntrl=  100147 DoSepK=F KAlg= 0 I1Cent=           0 FoldK=F
 IRaf=         0 NMat=       1 IRICut=       1 DoRegI=T DoRafI=F ISym2E= 0 IDoP0=0 IntGTp=1.
 FoFCou: FMM=F IPFlag=           0 FMFlag=      100000 FMFlg1=         800
         NFxFlg=           0 DoJE=F BraDBF=F KetDBF=F FulRan=T
         wScrn=  0.000000 ICntrl=    100147 IOpCl=  1 I1Cent=           0 NGrid=           0
         NMat0=    1 NMatS0=      1 NMatT0=    0 NMatD0=    1 NMtDS0=    0 NMtDT0=    0
 Symmetry not used in FoFCou.
 Leave Link  703 at Tue Apr 23 21:49:25 2019, MaxMem=   671088640 cpu:             792.2 elap:              39.6
 (Enter /shared/centos7/gaussian/g16/l716.exe)
 Dipole        =-3.20052793D-01 4.28969869D-01-1.36049601D-01
 Polarizability= 0.00000000D+00 0.00000000D+00 0.00000000D+00
                 0.00000000D+00 0.00000000D+00 0.00000000D+00
 ***** Axes restored to original set *****
 -------------------------------------------------------------------
 Center     Atomic                   Forces (Hartrees/Bohr)
 Number     Number              X              Y              Z
 -------------------------------------------------------------------
      1        8          -0.000000125   -0.000000164    0.000000884
      2        6           0.000000046    0.000000174   -0.000000544
      3        6          -0.000000060    0.000000361   -0.000000139
      4        6          -0.000000050   -0.000000387    0.000000787
      5        1           0.000000488   -0.000000862   -0.000001251
      6        1          -0.000000080    0.000001176   -0.000001136
      7        1           0.000000082   -0.000000683    0.000000503
      8        1          -0.000000494    0.000001327    0.000000646
      9        1           0.000000085    0.000000594   -0.000001199
     10        1          -0.000000186   -0.000000707    0.000001810
     11        1           0.000000294   -0.000000829   -0.000000360
 -------------------------------------------------------------------
 Cartesian Forces:  Max     0.000001810 RMS     0.000000717
 Force constants in Cartesian coordinates: 
                1             2             3             4             5 
      1  0.596846D+00
      2 -0.323057D-02  0.344408D+00
      3 -0.732339D-03  0.403107D-02  0.582690D-01
      4 -0.143854D+00  0.537377D-01  0.445210D-02  0.500569D+00
      5  0.912051D-01 -0.173449D+00 -0.535766D-02  0.443609D-01  0.545882D+00
      6  0.479107D-02 -0.504727D-02 -0.650799D-01 -0.678998D-03 -0.197958D-02
      7 -0.413745D-01 -0.754660D-02 -0.142851D-02 -0.175158D+00 -0.584671D-01
      8  0.349366D-01  0.126949D-01  0.141158D-02 -0.757813D-01 -0.120710D+00
      9  0.171305D-02  0.878457D-03  0.199207D-02 -0.768964D-02 -0.422916D-02
     10 -0.341961D+00 -0.774184D-01 -0.192383D-01 -0.530781D-01 -0.653830D-02
     11 -0.122634D+00 -0.142320D+00 -0.309774D-02  0.253607D-01  0.931195D-02
     12 -0.860355D-02  0.491883D-02 -0.935201D-02  0.191740D-02 -0.620823D-03
     13 -0.111381D-01  0.252243D-01 -0.204639D-01 -0.538168D-01 -0.259907D-01
     14  0.131248D-01 -0.268780D-01  0.191657D-01 -0.224898D-01 -0.139997D+00
     15 -0.386702D-02  0.593391D-03  0.708996D-02  0.267543D-01  0.118575D+00
     16 -0.123058D-01  0.229855D-01  0.237321D-01 -0.519263D-01 -0.179159D-01
     17  0.129476D-01 -0.225068D-01 -0.225897D-01 -0.147819D-01 -0.109949D+00
     18  0.458129D-02 -0.364803D-02  0.529271D-02 -0.219014D-01 -0.106577D+00
     19  0.329509D-02  0.678624D-03  0.729223D-03 -0.369488D-02 -0.176848D-01
     20  0.435621D-03  0.114462D-02  0.100906D-02 -0.538776D-03 -0.105941D-01
     21 -0.382508D-03  0.545413D-03  0.276532D-03 -0.123440D-03 -0.566689D-03
     22  0.328040D-02  0.639433D-03 -0.412109D-03 -0.482574D-02 -0.215112D-01
     23  0.417845D-03  0.129582D-02 -0.836236D-03 -0.113744D-02 -0.125326D-01
     24  0.544237D-03 -0.332757D-03  0.125354D-04 -0.155475D-03 -0.208266D-02
     25 -0.776217D-02 -0.429093D-02 -0.426911D-03 -0.162115D-01  0.233957D-01
     26 -0.463062D-02 -0.768322D-03 -0.186470D-03 -0.103760D-01  0.117450D-01
     27 -0.541245D-03 -0.156274D-03  0.933906D-03 -0.100319D-02  0.155511D-02
     28 -0.300417D-01  0.223105D-01  0.307013D-02 -0.125644D-02 -0.517545D-02
     29 -0.147055D-01  0.146189D-01  0.637199D-03 -0.167011D-02 -0.544065D-03
     30  0.214403D-03  0.200875D-02 -0.272738D-02 -0.856940D-03  0.778163D-03
     31 -0.149844D-01 -0.330895D-01  0.107185D-01  0.325243D-02 -0.567817D-02
     32 -0.786652D-02 -0.824106D-02  0.581312D-02  0.331614D-02  0.837084D-03
     33  0.228261D-02 -0.379158D-02  0.329257D-02 -0.714668D-03  0.504677D-03
                6             7             8             9            10 
      6  0.601986D+00
      7 -0.630844D-02  0.520786D+00
      8 -0.429082D-02 -0.392163D-01  0.570589D+00
      9 -0.847497D-01 -0.431685D-02 -0.202349D-02  0.584716D+00
     10 -0.172358D-02 -0.211684D-02  0.204212D-02  0.250815D-03  0.641487D+00
     11  0.195572D-02  0.336340D-02 -0.430707D-02  0.242257D-04 -0.371195D-01
     12 -0.317894D-02  0.368204D-04  0.167762D-03  0.446685D-03 -0.195290D-01
     13  0.290239D-01 -0.370631D-02 -0.191586D-01  0.244764D-01  0.550740D-02
     14  0.113973D+00 -0.360459D-02 -0.824174D-02  0.116402D-01 -0.414908D-02
     15 -0.207589D+00 -0.300062D-03 -0.290062D-02  0.322320D-02  0.876441D-03
     16 -0.252175D-01 -0.264967D-02 -0.155290D-01 -0.271295D-01  0.613221D-02
     17 -0.101954D+00 -0.314476D-02 -0.672190D-02 -0.131461D-01 -0.336058D-02
     18 -0.244062D+00 -0.450680D-03  0.861406D-03  0.742101D-03 -0.438087D-03
     19 -0.289241D-01 -0.478408D-01 -0.728595D-02 -0.125999D-01 -0.478061D-03
     20 -0.153666D-01 -0.920600D-02 -0.118915D+00 -0.118047D+00  0.272847D-03
     21 -0.669475D-03 -0.143141D-01 -0.119021D+00 -0.248759D+00 -0.197277D-04
     22  0.257772D-01 -0.488693D-01 -0.150278D-01  0.188541D-01 -0.518814D-03
     23  0.134368D-01 -0.171778D-01 -0.155645D+00  0.131365D+00  0.207518D-03
     24  0.252038D-02  0.203249D-01  0.132371D+00 -0.211071D+00  0.484174D-04
     25  0.140013D-02 -0.197868D+00  0.133100D+00  0.647176D-02  0.968407D-04
     26  0.812133D-03  0.135730D+00 -0.169926D+00 -0.613451D-02 -0.745834D-03
     27 -0.235636D-02  0.667521D-02 -0.619446D-02 -0.467822D-01  0.509981D-05
     28  0.524745D-03 -0.911665D-03  0.155160D-02  0.669701D-04 -0.194287D+00
     29  0.151546D-03 -0.698519D-03  0.665320D-03 -0.509474D-04  0.157877D+00
     30  0.254163D-02  0.413259D-05 -0.268515D-04  0.452530D-03  0.292127D-01
     31  0.133563D-02 -0.291427D-03  0.368272D-03 -0.972697D-04 -0.607845D-01
     32 -0.169037D-02 -0.318622D-04  0.518574D-03 -0.276484D-03 -0.310674D-01
     33  0.637840D-03  0.775303D-04 -0.354017D-03 -0.210089D-03  0.105552D-01
               11            12            13            14            15 
     11  0.660794D+00
     12 -0.772296D-01  0.605330D-01
     13  0.455453D-02 -0.133757D-02  0.639251D-01
     14 -0.668288D-03 -0.392454D-03  0.169147D-01  0.162945D+00
     15  0.311739D-04  0.375248D-04 -0.273498D-01 -0.132103D+00  0.216503D+00
     16  0.309556D-02  0.941460D-03  0.224488D-02  0.139453D-02  0.470157D-02
     17 -0.327921D-03  0.624095D-03  0.128914D-02  0.114836D-01  0.168751D-01
     18  0.698441D-04  0.867239D-03 -0.332544D-02 -0.117090D-01 -0.216432D-01
     19 -0.127195D-03  0.237126D-03  0.138929D-02  0.825577D-03  0.431906D-03
     20  0.152712D-03  0.234074D-03  0.649928D-03  0.747406D-04  0.639995D-04
     21  0.255072D-03  0.731943D-04 -0.603837D-03  0.111264D-03  0.854525D-03
     22 -0.272944D-03 -0.916376D-04 -0.528025D-02 -0.247000D-02 -0.814549D-03
     23  0.184223D-03 -0.163383D-03 -0.304445D-02 -0.310310D-03 -0.913076D-03
     24 -0.282414D-03  0.706100D-04 -0.107542D-02 -0.255174D-03  0.141727D-02
     25  0.163782D-02 -0.501625D-04  0.765363D-03 -0.206744D-03  0.733172D-03
     26  0.996794D-03 -0.381325D-04  0.877709D-03  0.405280D-03  0.361995D-03
     27  0.417921D-04  0.379361D-03 -0.564329D-04 -0.430124D-04 -0.237725D-04
     28  0.142454D+00  0.179988D-01 -0.566962D-04  0.185668D-03 -0.282682D-03
     29 -0.213845D+00 -0.968386D-02 -0.225999D-03  0.274148D-03 -0.387027D-03
     30 -0.239592D-01 -0.122772D-01  0.211189D-03 -0.569283D-03  0.268629D-03
     31 -0.203115D-01  0.848031D-02  0.166140D-03  0.474912D-03 -0.883262D-03
     32 -0.309972D+00  0.821835D-01 -0.109057D-02  0.913122D-03 -0.197100D-03
     33  0.102191D+00 -0.375995D-01  0.500866D-03  0.182170D-03 -0.138250D-03
               16            17            18            19            20 
     16  0.620426D-01
     17  0.834198D-02  0.127580D+00
     18  0.218855D-01  0.120405D+00  0.257258D+00
     19 -0.526021D-02 -0.252234D-02  0.221428D-03  0.510719D-01
     20 -0.314172D-02 -0.382788D-03  0.561369D-03  0.127037D-01  0.127078D+00
     21  0.331436D-03 -0.126692D-03  0.159409D-02  0.157145D-01  0.131125D+00
     22  0.137541D-02  0.881299D-03 -0.274589D-03 -0.964826D-03  0.147955D-02
     23  0.547314D-03  0.122328D-03 -0.132459D-03  0.189814D-02  0.121666D-01
     24  0.705260D-03 -0.186676D-03  0.812846D-03  0.231482D-02  0.181138D-01
     25  0.783732D-03 -0.124431D-03 -0.708672D-03  0.233666D-02 -0.263228D-02
     26  0.857528D-03  0.422340D-03 -0.264596D-03  0.113565D-01 -0.107281D-01
     27  0.214027D-03  0.104538D-03 -0.894453D-04  0.219754D-01 -0.176112D-01
     28 -0.197092D-03  0.228860D-03  0.219543D-03  0.476964D-04 -0.299806D-04
     29 -0.258198D-03  0.124949D-03  0.242055D-03  0.846542D-04  0.254734D-04
     30 -0.391183D-03  0.265661D-03  0.000000D+00  0.419548D-04  0.322867D-05
     31 -0.239760D-03  0.245148D-03  0.191126D-03  0.980725D-04  0.714900D-05
     32 -0.377536D-03  0.155035D-03  0.191081D-03  0.731990D-04 -0.215422D-04
     33  0.226862D-03 -0.270992D-03 -0.772835D-03 -0.142285D-03 -0.857049D-04
               21            22            23            24            25 
     21  0.266187D+00
     22 -0.125108D-02  0.523328D-01
     23 -0.133803D-01  0.213651D-01  0.167559D+00
     24 -0.199137D-01 -0.216613D-01 -0.145022D+00  0.224550D+00
     25  0.623762D-03  0.327836D-02 -0.320315D-02 -0.975604D-03  0.215165D+00
     26  0.106027D-02  0.145214D-01 -0.129089D-01 -0.235209D-02 -0.147321D+00
     27  0.398133D-03 -0.200171D-01  0.156186D-01  0.164598D-02 -0.715844D-02
     28 -0.541716D-04  0.651362D-04 -0.173879D-04  0.510320D-04 -0.483892D-03
     29 -0.682335D-05  0.114686D-03  0.418768D-04  0.210802D-04 -0.211541D-03
     30 -0.126126D-04 -0.580114D-04 -0.953036D-05 -0.167266D-04  0.951361D-05
     31  0.791633D-04  0.126828D-03  0.144309D-03 -0.120890D-03 -0.999494D-04
     32  0.440151D-05  0.280495D-03  0.271052D-04  0.852992D-05 -0.143987D-03
     33 -0.279379D-04 -0.509247D-04  0.367478D-04 -0.278780D-04  0.814493D-04
               26            27            28            29            30 
     26  0.180964D+00
     27  0.670842D-02  0.458971D-01
     28 -0.322650D-03 -0.512519D-04  0.219691D+00
     29 -0.154658D-03 -0.160852D-04 -0.156465D+00  0.207569D+00
     30 -0.548984D-05 -0.223202D-05 -0.218034D-01  0.145969D-01  0.100955D-01
     31  0.527452D-04 -0.419975D-04  0.743001D-02  0.161591D-01 -0.658441D-02
     32 -0.479249D-04 -0.744717D-05 -0.471945D-02 -0.877616D-02  0.691761D-02
     33  0.384830D-04  0.000000D+00  0.260206D-03 -0.550403D-02  0.167752D-02
               31            32            33 
     31  0.653266D-01
     32  0.416275D-01  0.324607D+00
     33 -0.130769D-01 -0.929469D-01  0.331691D-01
 FormGI is forming the generalized inverse of G from B-inverse, IUseBI=4.
 Leave Link  716 at Tue Apr 23 21:49:25 2019, MaxMem=   671088640 cpu:               0.5 elap:               0.0
 (Enter /shared/centos7/gaussian/g16/l103.exe)

 GradGradGradGradGradGradGradGradGradGradGradGradGradGradGradGradGradGrad
 Berny optimization.
 Red2BG is reusing G-inverse.
 Internal  Forces:  Max     0.000000036 RMS     0.000000012
 Search for a local minimum.
 Step number   1 out of a maximum of   51 on scan point     1 out of    37
 All quantities printed in internal units (Hartrees-Bohrs-Radians)
 RMS Force = .98652D-08 SwitMx=.10000D-02 MixMth= 2
 Mixed Optimization -- En-DIIS/RFO-DIIS
 Second derivative matrix not updated -- analytic derivatives used.
 ITU=  0
     Eigenvalues ---    0.00832   0.01436   0.04357   0.04436   0.05732
     Eigenvalues ---    0.07569   0.10347   0.11918   0.12437   0.13199
     Eigenvalues ---    0.16356   0.16505   0.22870   0.24542   0.31482
     Eigenvalues ---    0.32560   0.33066   0.34506   0.34615   0.35285
     Eigenvalues ---    0.35836   0.37169   0.39462   0.492561000.00000
     Eigenvalues --- 1000.000001000.000001000.000001000.000001000.00000
     Eigenvalues --- 1000.000001000.000001000.000001000.000001000.00000
     Eigenvalues --- 1000.000001000.000001000.000001000.000001000.00000
     Eigenvalues --- 1000.00000
 RFO step:  Lambda= 0.00000000D+00 EMin= 8.32022459D-03
 Linear search not attempted -- first point.
 Iteration  1 RMS(Cart)=  0.00000029 RMS(Int)=  0.00000000
 Iteration  1 RMS(Cart)=  0.00000000 RMS(Int)=  0.00000000
 ITry= 1 IFail=0 DXMaxC= 1.15D-06 DCOld= 1.00D+10 DXMaxT= 3.00D-01 DXLimC= 3.00D+00 Rises=F
 Variable       Old X    -DE/DX   Delta X   Delta X   Delta X     New X
                                 (Linear)    (Quad)   (Total)
    R1        2.68104   0.00000   0.00000   0.00000   0.00000   2.68104
    R2        2.54382  -0.00000   0.00000  -0.00000  -0.00000   2.54382
    R3        2.85333  -0.00000   0.00000   0.00000   0.00000   2.85333
    R4        2.06903  -0.00000   0.00000  -0.00000  -0.00000   2.06903
    R5        2.06687  -0.00000   0.00000  -0.00000  -0.00000   2.06687
    R6        2.05733  -0.00000   0.00000  -0.00000  -0.00000   2.05733
    R7        2.05718   0.00000   0.00000   0.00000   0.00000   2.05718
    R8        2.05801   0.00000   0.00000   0.00000   0.00000   2.05801
    R9        2.03604   0.00000   0.00000   0.00000   0.00000   2.03604
   R10        2.04631  -0.00000   0.00000  -0.00000  -0.00000   2.04631
    A1        2.00732   0.00000   0.00000   0.00000   0.00000   2.00732
    A2        1.89227  -0.00000   0.00000  -0.00000  -0.00000   1.89227
    A3        1.90074  -0.00000   0.00000   0.00000   0.00000   1.90074
    A4        1.90060   0.00000   0.00000   0.00000   0.00000   1.90060
    A5        1.94044   0.00000   0.00000   0.00000   0.00000   1.94044
    A6        1.94281  -0.00000   0.00000  -0.00000  -0.00000   1.94281
    A7        1.88628  -0.00000   0.00000   0.00000   0.00000   1.88628
    A8        1.92740   0.00000   0.00000   0.00000   0.00000   1.92740
    A9        1.92593  -0.00000   0.00000  -0.00000  -0.00000   1.92593
   A10        1.92293  -0.00000   0.00000  -0.00000  -0.00000   1.92293
   A11        1.89407  -0.00000   0.00000   0.00000   0.00000   1.89407
   A12        1.89663   0.00000   0.00000  -0.00000  -0.00000   1.89663
   A13        1.89616   0.00000   0.00000  -0.00000  -0.00000   1.89616
   A14        1.99558  -0.00000   0.00000  -0.00000  -0.00000   1.99558
   A15        2.06423   0.00000   0.00000   0.00000   0.00000   2.06423
   A16        2.11973   0.00000   0.00000   0.00000   0.00000   2.11973
    D1        3.11859   0.00000   0.00000   0.00000   0.00000   3.11859
    D2        1.00497   0.00000   0.00000   0.00000   0.00000   1.00497
    D3       -1.04820   0.00000   0.00000   0.00000  -0.00000  -1.04820
    D4       -3.08531   0.00000   0.00000   0.00000   0.00000  -3.08531
    D5       -0.40944   0.00000   0.00000   0.00000   0.00000  -0.40944
    D6       -1.04691   0.00000   0.00000  -0.00000  -0.00000  -1.04691
    D7        1.04715   0.00000   0.00000  -0.00000  -0.00000   1.04715
    D8        3.14096  -0.00000   0.00000  -0.00000  -0.00000   3.14095
    D9        1.04202   0.00000   0.00000  -0.00000  -0.00000   1.04202
   D10        3.13608   0.00000   0.00000  -0.00000  -0.00000   3.13608
   D11       -1.05331  -0.00000   0.00000  -0.00000  -0.00000  -1.05331
   D12       -3.13709   0.00000   0.00000   0.00000  -0.00000  -3.13709
   D13       -1.04303   0.00000   0.00000   0.00000   0.00000  -1.04303
   D14        1.05077   0.00000   0.00000  -0.00000  -0.00000   1.05077
   D15        2.65953  -0.00000   0.00000   0.00000   0.00000   2.65953
         Item               Value     Threshold  Converged?
 Maximum Force            0.000000     0.000450     YES
 RMS     Force            0.000000     0.000300     YES
 Maximum Displacement     0.000001     0.001800     YES
 RMS     Displacement     0.000000     0.001200     YES
 Predicted change in Energy=-1.947031D-14
 Optimization completed.
    -- Stationary point found.
                           ----------------------------
                           !   Optimized Parameters   !
                           ! (Angstroms and Degrees)  !
 --------------------------                            --------------------------
 ! Name  Definition              Value          Derivative Info.                !
 --------------------------------------------------------------------------------
 ! R1    R(1,2)                  1.4187         -DE/DX =    0.0                 !
 ! R2    R(1,4)                  1.3461         -DE/DX =    0.0                 !
 ! R3    R(2,3)                  1.5099         -DE/DX =    0.0                 !
 ! R4    R(2,5)                  1.0949         -DE/DX =    0.0                 !
 ! R5    R(2,6)                  1.0937         -DE/DX =    0.0                 !
 ! R6    R(3,7)                  1.0887         -DE/DX =    0.0                 !
 ! R7    R(3,8)                  1.0886         -DE/DX =    0.0                 !
 ! R8    R(3,9)                  1.0891         -DE/DX =    0.0                 !
 ! R9    R(4,10)                 1.0774         -DE/DX =    0.0                 !
 ! R10   R(4,11)                 1.0829         -DE/DX =    0.0                 !
 ! A1    A(2,1,4)              115.011          -DE/DX =    0.0                 !
 ! A2    A(1,2,3)              108.4193         -DE/DX =    0.0                 !
 ! A3    A(1,2,5)              108.9045         -DE/DX =    0.0                 !
 ! A4    A(1,2,6)              108.8964         -DE/DX =    0.0                 !
 ! A5    A(3,2,5)              111.1788         -DE/DX =    0.0                 !
 ! A6    A(3,2,6)              111.3146         -DE/DX =    0.0                 !
 ! A7    A(5,2,6)              108.0761         -DE/DX =    0.0                 !
 ! A8    A(2,3,7)              110.4321         -DE/DX =    0.0                 !
 ! A9    A(2,3,8)              110.3475         -DE/DX =    0.0                 !
 ! A10   A(2,3,9)              110.1758         -DE/DX =    0.0                 !
 ! A11   A(7,3,8)              108.5219         -DE/DX =    0.0                 !
 ! A12   A(7,3,9)              108.6686         -DE/DX =    0.0                 !
 ! A13   A(8,3,9)              108.642          -DE/DX =    0.0                 !
 ! A14   A(1,4,10)             114.3385         -DE/DX =    0.0                 !
 ! A15   A(1,4,11)             118.2716         -DE/DX =    0.0                 !
 ! A16   A(10,4,11)            121.4515         -DE/DX =    0.0                 !
 ! D1    D(4,1,2,3)            178.6818         -DE/DX =    0.0                 !
 ! D2    D(4,1,2,5)             57.5807         -DE/DX =    0.0                 !
 ! D3    D(4,1,2,6)            -60.0572         -DE/DX =    0.0                 !
 ! D4    D(2,1,4,10)          -176.7754         -DE/DX =    0.0                 !
 ! D5    D(2,1,4,11)           -23.459          -DE/DX =    0.0                 !
 ! D6    D(1,2,3,7)            -59.9834         -DE/DX =    0.0                 !
 ! D7    D(1,2,3,8)             59.9975         -DE/DX =    0.0                 !
 ! D8    D(1,2,3,9)            179.9635         -DE/DX =    0.0                 !
 ! D9    D(5,2,3,7)             59.7031         -DE/DX =    0.0                 !
 ! D10   D(5,2,3,8)            179.684          -DE/DX =    0.0                 !
 ! D11   D(5,2,3,9)            -60.35           -DE/DX =    0.0                 !
 ! D12   D(6,2,3,7)           -179.7421         -DE/DX =    0.0                 !
 ! D13   D(6,2,3,8)            -59.7612         -DE/DX =    0.0                 !
 ! D14   D(6,2,3,9)             60.2048         -DE/DX =    0.0                 !
 ! D15   D(1,4,10,11)          152.3798         -DE/DX =    0.0                 !
 --------------------------------------------------------------------------------
 Lowest energy point so far.  Saving SCF results.
 Iteration  1 RMS(Cart)=  0.03230293 RMS(Int)=  0.01564210
 Iteration  2 RMS(Cart)=  0.00147475 RMS(Int)=  0.01557321
 Iteration  3 RMS(Cart)=  0.00002780 RMS(Int)=  0.01557320
 Iteration  4 RMS(Cart)=  0.00000130 RMS(Int)=  0.01557320
 Iteration  5 RMS(Cart)=  0.00000005 RMS(Int)=  0.01557320
 Iteration  1 RMS(Cart)=  0.01054961 RMS(Int)=  0.00502571
 Iteration  2 RMS(Cart)=  0.00342742 RMS(Int)=  0.00554126
 Iteration  3 RMS(Cart)=  0.00110221 RMS(Int)=  0.00590118
 Iteration  4 RMS(Cart)=  0.00035331 RMS(Int)=  0.00603223
 Iteration  5 RMS(Cart)=  0.00011314 RMS(Int)=  0.00607565
 Iteration  6 RMS(Cart)=  0.00003622 RMS(Int)=  0.00608969
 Iteration  7 RMS(Cart)=  0.00001160 RMS(Int)=  0.00609420
 Iteration  8 RMS(Cart)=  0.00000371 RMS(Int)=  0.00609565
 Iteration  9 RMS(Cart)=  0.00000119 RMS(Int)=  0.00609611
 Iteration 10 RMS(Cart)=  0.00000038 RMS(Int)=  0.00609626
 GradGradGradGradGradGradGradGradGradGradGradGradGradGradGradGradGradGrad

 Leave Link  103 at Tue Apr 23 21:49:25 2019, MaxMem=   671088640 cpu:               0.7 elap:               0.1
 (Enter /shared/centos7/gaussian/g16/l202.exe)
                          Input orientation:                          
 ---------------------------------------------------------------------
 Center     Atomic      Atomic             Coordinates (Angstroms)
 Number     Number       Type             X           Y           Z
 ---------------------------------------------------------------------
      1          8           0        0.584050   -0.465230    0.025177
      2          6           0       -0.442621    0.513875    0.039328
      3          6           0       -1.775524   -0.191374   -0.037139
      4          6           0        1.837618    0.024037    0.060637
      5          1           0       -0.302118    1.187554   -0.812274
      6          1           0       -0.356965    1.103730    0.956409
      7          1           0       -1.843602   -0.777183   -0.952283
      8          1           0       -1.898661   -0.861156    0.812187
      9          1           0       -2.586279    0.535715   -0.027524
     10          1           0        2.593188   -0.707402   -0.176239
     11          1           0        2.004076    1.059924   -0.207658
 ---------------------------------------------------------------------
                    Distance matrix (angstroms):
                    1          2          3          4          5
     1  O    0.000000
     2  C    1.418767   0.000000
[...]
 Alpha virt. eigenvalues --    0.77961   0.79396   0.82392   0.86082   0.86410
 Alpha virt. eigenvalues --    0.90767   0.91716   0.96384   0.97446   1.01695
 Alpha virt. eigenvalues --    1.04779   1.06675   1.09149   1.12235   1.13443
 Alpha virt. eigenvalues --    1.15220   1.16951   1.17713   1.19947   1.21607
 Alpha virt. eigenvalues --    1.26299   1.27352   1.29009   1.31002   1.34686
 Alpha virt. eigenvalues --    1.35832   1.36544   1.39407   1.40911   1.44047
 Alpha virt. eigenvalues --    1.45379   1.48204   1.50393   1.50733   1.55521
 Alpha virt. eigenvalues --    1.57645   1.60181   1.67576   1.73165   1.78288
 Alpha virt. eigenvalues --    1.92128   2.06869   2.13079   2.27868   2.33853
 Alpha virt. eigenvalues --    2.40374   2.43190   2.48684   2.55128   2.57400
 Alpha virt. eigenvalues --    2.60652   2.68290   2.79218   2.82893   2.84497
 Alpha virt. eigenvalues --    2.86316   2.94401   2.96017   2.98412   3.02255
 Alpha virt. eigenvalues --    3.03310   3.07278   3.09339   3.10396   3.11768
 Alpha virt. eigenvalues --    3.15606   3.17382   3.19667   3.22256   3.24885
 Alpha virt. eigenvalues --    3.29255   3.33935   3.35315   3.36954   3.39807
 Alpha virt. eigenvalues --    3.43238   3.48683   3.50513   3.54666   3.55390
 Alpha virt. eigenvalues --    3.59417   3.61451   3.63610   3.66942   3.75825
 Alpha virt. eigenvalues --    3.80072   3.85045   3.89234   3.91957   3.93122
 Alpha virt. eigenvalues --    3.98298   3.99482   4.02669   4.06815   4.07575
 Alpha virt. eigenvalues --    4.14419   4.16849   4.18066   4.18441   4.21679
 Alpha virt. eigenvalues --    4.24712   4.25388   4.27407   4.39891   4.43338
 Alpha virt. eigenvalues --    4.45417   4.48587   4.55553   4.56276   4.61489
 Alpha virt. eigenvalues --    4.65733   5.11115   5.15337   5.17919   5.25720
 Alpha virt. eigenvalues --    5.30636   5.41987   5.49782   5.50996   5.56445
 Alpha virt. eigenvalues --    5.59470   5.62059   5.67053   5.82753   5.90554
 Alpha virt. eigenvalues --    6.28702   6.45097   6.81239   7.12082   7.19433
 Alpha virt. eigenvalues --    7.28376   7.69689   7.71858  24.35354  24.46855
 Alpha virt. eigenvalues --   24.48279  50.16929
  Beta  occ. eigenvalues --  -19.65054 -10.59151 -10.56851 -10.53026  -1.18117
  Beta  occ. eigenvalues --   -0.87040  -0.74140  -0.68780  -0.56845  -0.55578
  Beta  occ. eigenvalues --   -0.54234  -0.45952  -0.45213  -0.43609  -0.40452
  Beta  occ. eigenvalues --   -0.37429
  Beta virt. eigenvalues --   -0.01169   0.01717   0.03185   0.04045   0.05330
  Beta virt. eigenvalues --    0.05907   0.07058   0.08110   0.09229   0.09611
  Beta virt. eigenvalues --    0.11307   0.13438   0.13947   0.18496   0.19034
  Beta virt. eigenvalues --    0.20339   0.22379   0.22702   0.24133   0.25179
  Beta virt. eigenvalues --    0.25610   0.27633   0.28502   0.28840   0.32306
  Beta virt. eigenvalues --    0.34748   0.37159   0.41583   0.44655   0.48035
  Beta virt. eigenvalues --    0.48416   0.50271   0.53559   0.53655   0.55062
  Beta virt. eigenvalues --    0.55744   0.57123   0.58086   0.60555   0.61406
  Beta virt. eigenvalues --    0.63060   0.64759   0.65828   0.68647   0.70461
  Beta virt. eigenvalues --    0.76180   0.78296   0.78951   0.82499   0.85845
  Beta virt. eigenvalues --    0.86609   0.90797   0.91625   0.96679   0.97013
  Beta virt. eigenvalues --    1.01109   1.04793   1.07066   1.09092   1.12223
  Beta virt. eigenvalues --    1.13473   1.15285   1.17031   1.17680   1.20004
  Beta virt. eigenvalues --    1.21732   1.26372   1.27828   1.29252   1.31221
  Beta virt. eigenvalues --    1.34743   1.35968   1.36744   1.39973   1.40960
  Beta virt. eigenvalues --    1.44062   1.45185   1.48198   1.50309   1.51659
  Beta virt. eigenvalues --    1.56156   1.57950   1.60233   1.67867   1.73426
  Beta virt. eigenvalues --    1.78488   1.93393   2.07126   2.13440   2.28691
  Beta virt. eigenvalues --    2.34690   2.40500   2.43365   2.49065   2.55903
  Beta virt. eigenvalues --    2.58028   2.61183   2.69100   2.80185   2.84300
  Beta virt. eigenvalues --    2.85601   2.89311   2.95827   2.99462   3.02782
  Beta virt. eigenvalues --    3.04146   3.04552   3.09184   3.09816   3.12733
  Beta virt. eigenvalues --    3.13440   3.17269   3.19431   3.21696   3.25375
  Beta virt. eigenvalues --    3.27728   3.31270   3.35534   3.38952   3.39037
  Beta virt. eigenvalues --    3.41776   3.45619   3.50664   3.52263   3.55390
  Beta virt. eigenvalues --    3.55742   3.60098   3.61927   3.66092   3.68726
  Beta virt. eigenvalues --    3.77536   3.80080   3.86508   3.90891   3.92591
  Beta virt. eigenvalues --    3.94764   3.98676   4.01206   4.03256   4.07134
  Beta virt. eigenvalues --    4.08555   4.16514   4.18513   4.19953   4.21467
  Beta virt. eigenvalues --    4.22087   4.25492   4.26120   4.28207   4.40367
  Beta virt. eigenvalues --    4.43978   4.45620   4.48634   4.55635   4.56313
  Beta virt. eigenvalues --    4.62625   4.67195   5.11514   5.18786   5.20471
  Beta virt. eigenvalues --    5.26644   5.32267   5.43215   5.50683   5.53749
  Beta virt. eigenvalues --    5.57645   5.60622   5.62746   5.67880   5.83283
  Beta virt. eigenvalues --    5.91413   6.29184   6.45367   6.82002   7.13092
  Beta virt. eigenvalues --    7.20556   7.29412   7.70112   7.71807  24.35357
  Beta virt. eigenvalues --   24.47822  24.48607  50.16634
          Condensed to atoms (all electrons):
               1          2          3          4          5          6
     1  O    8.202002   0.117780  -0.097418   0.056329  -0.043974  -0.049984
     2  C    0.117780   5.064813   0.306662  -0.093701   0.432251   0.450386
     3  C   -0.097418   0.306662   5.076368  -0.005953  -0.036268  -0.048613
     4  C    0.056329  -0.093701  -0.005953   5.476268   0.011984  -0.004280
     5  H   -0.043974   0.432251  -0.036268   0.011984   0.549980  -0.051923
     6  H   -0.049984   0.450386  -0.048613  -0.004280  -0.051923   0.563253
     7  H   -0.002382  -0.029619   0.405313  -0.000814  -0.008074   0.006536
     8  H   -0.002666  -0.028894   0.404610  -0.000308   0.006271  -0.007933
     9  H    0.011663  -0.034859   0.414746   0.001313  -0.003789  -0.003670
    10  H   -0.050510   0.005480   0.001470   0.440638   0.000153  -0.000032
    11  H   -0.045350   0.006187  -0.006818   0.418322  -0.004076   0.005972
               7          8          9         10         11
     1  O   -0.002382  -0.002666   0.011663  -0.050510  -0.045350
     2  C   -0.029619  -0.028894  -0.034859   0.005480   0.006187
     3  C    0.405313   0.404610   0.414746   0.001470  -0.006818
     4  C   -0.000814  -0.000308   0.001313   0.440638   0.418322
     5  H   -0.008074   0.006271  -0.003789   0.000153  -0.004076
     6  H    0.006536  -0.007933  -0.003670  -0.000032   0.005972
     7  H    0.541187  -0.029972  -0.026415  -0.000006   0.000017
     8  H   -0.029972   0.543583  -0.026851  -0.000003   0.000012
     9  H   -0.026415  -0.026851   0.539940   0.000014   0.000019
    10  H   -0.000006  -0.000003   0.000014   0.472030  -0.029525
    11  H    0.000017   0.000012   0.000019  -0.029525   0.511684
          Atomic-Atomic Spin Densities.
               1          2          3          4          5          6
     1  O    0.293239   0.017119  -0.001144  -0.236281  -0.007977  -0.007383
     2  C    0.017119   0.034444  -0.023015  -0.017212  -0.002431   0.008151
     3  C   -0.001144  -0.023015   0.017723   0.006822   0.003307  -0.004994
     4  C   -0.236281  -0.017212   0.006822   1.242418   0.017928  -0.001428
     5  H   -0.007977  -0.002431   0.003307   0.017928  -0.003812  -0.004012
     6  H   -0.007383   0.008151  -0.004994  -0.001428  -0.004012   0.008834
     7  H    0.000048   0.000487  -0.000476  -0.000088  -0.000008   0.000044
     8  H   -0.000598   0.003795  -0.003160  -0.000107  -0.000312   0.000229
     9  H   -0.000023  -0.000567   0.000503  -0.000128  -0.000069   0.000053
    10  H    0.001503   0.000326   0.000016  -0.002540  -0.000120   0.000218
    11  H   -0.003117   0.005707  -0.002795  -0.015721  -0.001843   0.002920
               7          8          9         10         11
     1  O    0.000048  -0.000598  -0.000023   0.001503  -0.003117
     2  C    0.000487   0.003795  -0.000567   0.000326   0.005707
     3  C   -0.000476  -0.003160   0.000503   0.000016  -0.002795
     4  C   -0.000088  -0.000107  -0.000128  -0.002540  -0.015721
     5  H   -0.000008  -0.000312  -0.000069  -0.000120  -0.001843
     6  H    0.000044   0.000229   0.000053   0.000218   0.002920
     7  H   -0.000029  -0.000074   0.000091   0.000005   0.000000
     8  H   -0.000074  -0.000251   0.000035   0.000007   0.000041
     9  H    0.000091   0.000035  -0.000282  -0.000000  -0.000001
    10  H    0.000005   0.000007  -0.000000  -0.040159   0.005322
    11  H    0.000000   0.000041  -0.000001   0.005322  -0.026234
 Mulliken charges and spin densities:
               1          2
     1  O   -0.095490   0.055386
     2  C   -0.196484   0.026805
     3  C   -0.414100  -0.007212
     4  C   -0.299797   0.993663
     5  H    0.147465   0.000652
     6  H    0.140287   0.002632
     7  H    0.144230  -0.000000
     8  H    0.142151  -0.000393
     9  H    0.127890  -0.000389
    10  H    0.160291  -0.035421
    11  H    0.143557  -0.035722
 Sum of Mulliken charges =  -0.00000   1.00000
 Mulliken charges and spin densities with hydrogens summed into heavy atoms:
               1          2
     1  O   -0.095490   0.055386
     2  C    0.091268   0.030090
     3  C    0.000171  -0.007995
     4  C    0.004051   0.922520
 Electronic spatial extent (au):  <R**2>=            345.5615
 Charge=             -0.0000 electrons
 Dipole moment (field-independent basis, Debye):
    X=             -0.7807    Y=              1.0795    Z=              0.2631  Tot=              1.3579
 Quadrupole moment (field-independent basis, Debye-Ang):
   XX=            -24.6351   YY=            -26.2033   ZZ=            -27.2191
   XY=             -0.2413   XZ=              0.7205   YZ=              0.4559
 Traceless Quadrupole moment (field-independent basis, Debye-Ang):
   XX=              1.3841   YY=             -0.1841   ZZ=             -1.2000
   XY=             -0.2413   XZ=              0.7205   YZ=              0.4559
 Octapole moment (field-independent basis, Debye-Ang**2):
  XXX=              2.6861  YYY=             -0.9208  ZZZ=              0.8607  XYY=              0.5990
  XXY=             -2.1159  XXZ=              1.4970  XZZ=             -3.1945  YZZ=             -0.7461
  YYZ=              0.4763  XYZ=              0.9424
 Hexadecapole moment (field-independent basis, Debye-Ang**3):
 XXXX=           -357.0361 YYYY=            -71.5136 ZZZZ=            -45.4419 XXXY=            -11.1460
 XXXZ=              3.7293 YYYX=             -1.6799 YYYZ=              1.2827 ZZZX=              1.4507
 ZZZY=              0.2038 XXYY=            -67.9853 XXZZ=            -75.2997 YYZZ=            -18.3215
 XXYZ=              2.0025 YYXZ=              1.2580 ZZXY=              0.4118
 N-N= 1.266067138897D+02 E-N=-7.049782291722D+02  KE= 1.929287728382D+02
                          Isotropic Fermi Contact Couplings
        Atom                 a.u.       MegaHertz       Gauss      10(-4) cm-1
     1  O(17)              0.03438     -20.84152      -7.43677      -6.95198
     2  C(13)              0.00046       0.51235       0.18282       0.17090
     3  C(13)             -0.00131      -1.46865      -0.52405      -0.48989
     4  C(13)              0.17912     201.36383      71.85162      67.16774
     5  H(1)               0.00137       6.14324       2.19206       2.04916
     6  H(1)               0.00188       8.42374       3.00580       2.80986
     7  H(1)              -0.00002      -0.08308      -0.02965      -0.02771
     8  H(1)               0.00005       0.23833       0.08504       0.07950
     9  H(1)              -0.00029      -1.30944      -0.46724      -0.43678
    10  H(1)              -0.01166     -52.10195     -18.59127     -17.37934
    11  H(1)              -0.00968     -43.28718     -15.44594     -14.43905
 --------------------------------------------------------
       Center         ----  Spin Dipole Couplings  ----
                      3XX-RR        3YY-RR        3ZZ-RR
 --------------------------------------------------------
     1   Atom       -0.451423     -0.424996      0.876419
     2   Atom        0.015855     -0.003494     -0.012361
     3   Atom        0.006484     -0.004058     -0.002426
     4   Atom       -0.501818     -0.432692      0.934510
     5   Atom        0.009122     -0.002171     -0.006951
     6   Atom        0.004978     -0.000354     -0.004624
     7   Atom        0.005341     -0.002746     -0.002595
     8   Atom        0.005287     -0.002991     -0.002296
     9   Atom        0.003525     -0.001782     -0.001743
    10   Atom        0.001455      0.003722     -0.005177
    11   Atom       -0.062848      0.056273      0.006574
 --------------------------------------------------------
                        XY            XZ            YZ
 --------------------------------------------------------
     1   Atom       -0.026743     -0.077998     -0.115531
     2   Atom       -0.011411     -0.005312      0.002050
     3   Atom       -0.000433     -0.000925     -0.000627
     4   Atom       -0.006151      0.001817     -0.291055
     5   Atom       -0.008836      0.005265     -0.004161
     6   Atom       -0.008377     -0.005666      0.003724
     7   Atom        0.002005      0.001836      0.000312
     8   Atom        0.001358     -0.002380     -0.000501
     9   Atom       -0.000896     -0.000165     -0.000064
    10   Atom       -0.067604     -0.001666     -0.008467
    11   Atom        0.018241      0.008113      0.023685
 --------------------------------------------------------


 ---------------------------------------------------------------------------------
              Anisotropic Spin Dipole Couplings in Principal Axis System
 ---------------------------------------------------------------------------------

       Atom             a.u.   MegaHertz   Gauss  10(-4) cm-1        Axes

              Baa    -0.4804    34.760    12.403    11.595  0.8028  0.5884  0.0963
     1 O(17)  Bbb    -0.4105    29.700    10.598     9.907 -0.5936  0.8039  0.0362
              Bcc     0.8908   -64.460   -23.001   -21.501 -0.0561 -0.0862  0.9947
 
              Baa    -0.0133    -1.788    -0.638    -0.597  0.1809  0.0049  0.9835
     2 C(13)  Bbb    -0.0087    -1.174    -0.419    -0.392  0.4053  0.9108 -0.0791
              Bcc     0.0221     2.963     1.057     0.988  0.8961 -0.4129 -0.1628
 
              Baa    -0.0043    -0.579    -0.207    -0.193  0.0670  0.9369  0.3431
     3 C(13)  Bbb    -0.0023    -0.305    -0.109    -0.102  0.0815 -0.3479  0.9340
              Bcc     0.0066     0.885     0.316     0.295  0.9944 -0.0346 -0.0996
 
              Baa    -0.5044   -67.689   -24.153   -22.578  0.9090  0.4088  0.0815
     4 C(13)  Bbb    -0.4895   -65.683   -23.437   -21.909 -0.4169  0.8904  0.1825
              Bcc     0.9939   133.372    47.590    44.488  0.0020 -0.1999  0.9798
 
              Baa    -0.0094    -4.995    -1.782    -1.666 -0.0175  0.4846  0.8746
     5 H(1)   Bbb    -0.0065    -3.480    -1.242    -1.161  0.5490  0.7357 -0.3967
              Bcc     0.0159     8.475     3.024     2.827  0.8356 -0.4732  0.2789
 
              Baa    -0.0073    -3.877    -1.383    -1.293  0.4796  0.1124  0.8702
     6 H(1)   Bbb    -0.0064    -3.389    -1.209    -1.131  0.4383  0.8285 -0.3486
              Bcc     0.0136     7.266     2.593     2.424  0.7602 -0.5486 -0.3481
 
              Baa    -0.0033    -1.741    -0.621    -0.581 -0.2852  0.8836  0.3714
     7 H(1)   Bbb    -0.0029    -1.569    -0.560    -0.523 -0.1007 -0.4130  0.9052
              Bcc     0.0062     3.310     1.181     1.104  0.9532  0.2207  0.2067
 
              Baa    -0.0033    -1.738    -0.620    -0.580 -0.0410  0.9241  0.3800
     8 H(1)   Bbb    -0.0029    -1.570    -0.560    -0.524  0.3131 -0.3493  0.8832
              Bcc     0.0062     3.307     1.180     1.103  0.9488  0.1552 -0.2750
 
              Baa    -0.0020    -1.049    -0.374    -0.350  0.1601  0.9111  0.3797
     9 H(1)   Bbb    -0.0017    -0.913    -0.326    -0.304 -0.0357 -0.3791  0.9247
              Bcc     0.0037     1.962     0.700     0.654  0.9864 -0.1616 -0.0282
 
              Baa    -0.0659   -35.142   -12.540   -11.722  0.7052  0.6993  0.1169
    10 H(1)   Bbb    -0.0047    -2.482    -0.886    -0.828 -0.1286 -0.0360  0.9910
              Bcc     0.0705    37.625    13.425    12.550 -0.6973  0.7139 -0.0645
 
              Baa    -0.0659   -35.151   -12.543   -11.725  0.9886 -0.1347 -0.0667
    11 H(1)   Bbb    -0.0029    -1.545    -0.551    -0.515  0.0115 -0.3746  0.9271
              Bcc     0.0688    36.696    13.094    12.240  0.1499  0.9173  0.3688
 

 ---------------------------------------------------------------------------------

 No NMR shielding tensors so no spin-rotation constants.
 Leave Link  601 at Tue Apr 23 22:49:47 2019, MaxMem=   671088640 cpu:               6.9 elap:               0.4
 (Enter /shared/centos7/gaussian/g16/l9999.exe)
 1\1\GINC-C0298\Scan\UM062X\6-311+G(2df,2p)\C3H7O1(2)\UNDERKOFFLER.C\23
 -Apr-2019\0\\#p m062x/6-311+g(2df,2p) Opt=(CalcFC,ModRedun)\\Gaussian 
 Input Prepared from Scan Object\\0,2\O,0.538465368,-0.0792798485,0.578
 3149724\C,-0.4126184014,0.2428933581,-0.4243443766\C,-1.7850766688,-0.
 1286179381,0.084276681\C,1.8175474756,0.1818863507,0.2510133281\H,-0.1
 641403588,-0.3051079548,-1.3373208636\H,-0.350830993,1.3145195401,-0.6
 412957379\H,-1.8330235254,-1.1944380634,0.3006167038\H,-2.013413098,0.
 4199868173,0.9965181362\H,-2.5400319143,0.1094273113,-0.6636719099\H,2
 .5388749846,-0.1149342738,0.9935602271\H,2.0174091314,0.976152701,-0.4
 570461607\\Version=EM64L-G16RevA.03\State=2-A\HF=-193.6538671,-193.653
 6381,-193.6530021,-193.6520625,-193.6509182,-193.6496447,-193.6483209,
 -193.6470531,-193.6459949,-193.6453581,-193.6477923,-193.649705,-193.6
 514306,-193.6527336,-193.6535283,-193.6538483,-193.6538011,-193.653548
 5,-193.6534645,-193.653728,-193.6538569,-193.6536686,-193.6530356,-193
 .6519004,-193.6503033,-193.6484242,-193.6466137,-193.6453926,-193.6466
 894,-193.6479124,-193.6492352,-193.6505334,-193.6517219,-193.6527299,-
 193.653469,-193.6538334,-193.6537482\S2=0.754546,0.754571,0.75461,0.75
 4645,0.75466,0.754654,0.754641,0.754641,0.754672,0.75478,0.754205,0.75
 4217,0.754273,0.754346,0.754429,0.754516,0.754608,0.754705,0.754738,0.
 754637,0.754542,0.754453,0.754368,0.754291,0.754226,0.754196,0.754247,
 0.754501,0.75465,0.754643,0.754652,0.754663,0.754655,0.754625,0.754584
 ,0.75455,0.754544\S2-1=0.,0.,0.,0.,0.,0.,0.,0.,0.,0.,0.,0.,0.,0.,0.,0.
 ,0.,0.,0.,0.,0.,0.,0.,0.,0.,0.,0.,0.,0.,0.,0.,0.,0.,0.,0.,0.,0.\S2A=0.
 750015,0.750015,0.750015,0.750016,0.750016,0.750016,0.750016,0.750016,
 0.750017,0.750017,0.750013,0.750013,0.750013,0.750013,0.750014,0.75001
 5,0.750016,0.750017,0.750017,0.750016,0.750015,0.750014,0.750014,0.750
 013,0.750013,0.750013,0.750014,0.750015,0.750016,0.750016,0.750016,0.7
 50016,0.750016,0.750015,0.750015,0.750015,0.750015\RMSD=7.855e-09,9.05
 2e-09,2.628e-09,6.137e-09,8.333e-09,5.238e-09,7.663e-09,4.460e-09,3.71
 0e-09,6.435e-09,8.860e-09,4.208e-09,9.852e-09,3.351e-09,4.451e-09,4.98
 8e-09,7.996e-09,6.040e-09,2.478e-09,5.556e-09,5.010e-09,7.721e-09,9.15
 4e-09,2.076e-09,7.847e-09,5.732e-09,6.274e-09,9.113e-09,4.204e-09,7.18
 5e-09,6.451e-09,5.736e-09,4.555e-09,2.992e-09,2.828e-09,4.133e-09,5.21
 5e-09\PG=C01 [X(C3H7O1)]\\@


 GOORD'S AXIOM:  A MEETING IS AN EVENT AT WHICH
 THE MINUTES ARE KEPT AND THE HOURS ARE LOST.
 Job cpu time:       0 days 15 hours 30 minutes  2.0 seconds.
 Elapsed time:       0 days  1 hours  2 minutes 17.0 seconds.
 File lengths (MBytes):  RWF=   1328 Int=      0 D2E=      0 Chk=     32 Scr=     32
 Normal termination of Gaussian 16 at Tue Apr 23 22:49:47 2019.
