 Entering Gaussian System, Link 0=g16
 Input=TVFRQKHUZDMLDB-UHFFFAOYSA-N_36by10.0_tor03_a1.com
 Output=TVFRQKHUZDMLDB-UHFFFAOYSA-N_36by10.0_tor03_a1.log
 Initial command:
 /shared/centos7/gaussian/g16/l1.exe "/scratch/underkoffler.c/gaussian_scratch/Gau-14916.inp" -scrdir="/scratch/underkoffler.c/gaussian_scratch/"
 Entering Link 1 = /shared/centos7/gaussian/g16/l1.exe PID=     14917.
  
 Copyright (c) 1988,1990,1992,1993,1995,1998,2003,2009,2016,
            Gaussian, Inc.  All Rights Reserved.
  
 This is part of the Gaussian(R) 16 program.  It is based on
 the Gaussian(R) 09 system (copyright 2009, Gaussian, Inc.),
 the Gaussian(R) 03 system (copyright 2003, Gaussian, Inc.),
 the Gaussian(R) 98 system (copyright 1998, Gaussian, Inc.),
 the Gaussian(R) 94 system (copyright 1995, Gaussian, Inc.),
 the Gaussian 92(TM) system (copyright 1992, Gaussian, Inc.),
 the Gaussian 90(TM) system (copyright 1990, Gaussian, Inc.),
 the Gaussian 88(TM) system (copyright 1988, Gaussian, Inc.),
 the Gaussian 86(TM) system (copyright 1986, Carnegie Mellon
 University), and the Gaussian 82(TM) system (copyright 1983,
 Carnegie Mellon University). Gaussian is a federally registered
 trademark of Gaussian, Inc.
  
 This software contains proprietary and confidential information,
 including trade secrets, belonging to Gaussian, Inc.
  
 This software is provided under written license and may be
 used, copied, transmitted, or stored only in accord with that
 written license.
  
 The following legend is applicable only to US Government
 contracts under FAR:
  
                    RESTRICTED RIGHTS LEGEND
  
 Use, reproduction and disclosure by the US Government is
 subject to restrictions as set forth in subparagraphs (a)
 and (c) of the Commercial Computer Software - Restricted
 Rights clause in FAR 52.227-19.
  
 Gaussian, Inc.
 340 Quinnipiac St., Bldg. 40, Wallingford CT 06492
  
  
 ---------------------------------------------------------------
 Warning -- This program may not be used in any manner that
 competes with the business of Gaussian, Inc. or will provide
 assistance to any competitor of Gaussian, Inc.  The licensee
 of this program is prohibited from giving any competitor of
 Gaussian, Inc. access to this program.  By using this program,
 the user acknowledges that Gaussian, Inc. is engaged in the
 business of creating and licensing software in the field of
 computational chemistry and represents and warrants to the
 licensee that it is not a competitor of Gaussian, Inc. and that
 it will not use this program in any manner prohibited above.
 ---------------------------------------------------------------
  

 Cite this work as:
 Gaussian 16, Revision A.03,
 M. J. Frisch, G. W. Trucks, H. B. Schlegel, G. E. Scuseria, 
 M. A. Robb, J. R. Cheeseman, G. Scalmani, V. Barone, 
 G. A. Petersson, H. Nakatsuji, X. Li, M. Caricato, A. V. Marenich, 
 J. Bloino, B. G. Janesko, R. Gomperts, B. Mennucci, H. P. Hratchian, 
 J. V. Ortiz, A. F. Izmaylov, J. L. Sonnenberg, D. Williams-Young, 
 F. Ding, F. Lipparini, F. Egidi, J. Goings, B. Peng, A. Petrone, 
 T. Henderson, D. Ranasinghe, V. G. Zakrzewski, J. Gao, N. Rega, 
 G. Zheng, W. Liang, M. Hada, M. Ehara, K. Toyota, R. Fukuda, 
 J. Hasegawa, M. Ishida, T. Nakajima, Y. Honda, O. Kitao, H. Nakai, 
 T. Vreven, K. Throssell, J. A. Montgomery, Jr., J. E. Peralta, 
 F. Ogliaro, M. J. Bearpark, J. J. Heyd, E. N. Brothers, K. N. Kudin, 
 V. N. Staroverov, T. A. Keith, R. Kobayashi, J. Normand, 
 K. Raghavachari, A. P. Rendell, J. C. Burant, S. S. Iyengar, 
 J. Tomasi, M. Cossi, J. M. Millam, M. Klene, C. Adamo, R. Cammi, 
 J. W. Ochterski, R. L. Martin, K. Morokuma, O. Farkas, 
 J. B. Foresman, and D. J. Fox, Gaussian, Inc., Wallingford CT, 2016.
 
 ******************************************
 Gaussian 16:  EM64L-G16RevA.03 25-Dec-2016
                11-Mar-2019 
 ******************************************
 %nprocshared=20
 Will use up to   20 processors via shared memory.
 %mem=5GB
 ----------------------------------------------
 #p m062x/6-311+g(2df,2p) Opt=(CalcFC,ModRedun)
 ----------------------------------------------
 1/10=4,18=120,19=15,26=3,38=1/1,3;
 2/9=110,12=2,17=6,18=5,40=1/2;
 3/5=4,6=6,7=214,11=2,25=1,30=1,71=2,74=-55,140=1/1,2,3;
 4//1;
 5/5=2,38=5/2;
 8/6=4,10=90,11=11/1;
 11/6=1,8=1,9=11,15=111,16=1/1,2,10;
 10/6=1,13=1/2;
 6/7=2,8=2,9=2,10=2,28=1/1;
 7/10=1,18=20,25=1/1,2,3,16;
 1/10=4,18=20,19=15,26=3/3(2);
 2/9=110/2;
 99//99;
 2/9=110/2;
 3/5=4,6=6,7=214,11=2,25=1,30=1,71=1,74=-55/1,2,3;
 4/5=5,16=3,69=1/1;
 5/5=2,38=5/2;
 7//1,2,3,16;
 1/18=20,19=15,26=3/3(-5);
 2/9=110/2;
 6/7=2,8=2,9=2,10=2,19=2,28=1/1;
 99/9=1/99;
 Leave Link    1 at Mon Mar 11 19:44:38 2019, MaxMem=   671088640 cpu:              35.5 elap:               1.9
 (Enter /shared/centos7/gaussian/g16/l101.exe)
 ----------------------------------------
 Gaussian Input Prepared from Scan Object
 ----------------------------------------
 Symbolic Z-matrix:
 Charge =  0 Multiplicity = 2
 O                    -0.71609  -0.48409  -0.37473 
 C                     0.53975  -0.6088    0.27419 
 C                     1.48804   0.50804  -0.11711 
 C                    -1.51372   0.49284   0.09993 
 H                     0.93123  -1.57771  -0.02943 
 H                     0.38096  -0.62748   1.35733 
 H                     1.63279   0.51696  -1.19637 
 H                     1.08838   1.47522   0.18497 
 H                     2.45526   0.36607   0.36409 
 H                    -2.47156   0.55619  -0.38971 
 H                    -1.39294   0.78894   1.13562 
 
 The following ModRedundant input section has been read:
 B       2       3 B                                                           
 B       2       6 B                                                           
 B       4      11 B                                                           
 B       4      10 B                                                           
 B       3       8 B                                                           
 B       3       7 B                                                           
 B       3       9 B                                                           
 B       1       2 B                                                           
 B       2       5 B                                                           
 B       1       4 B                                                           
 D       2       1       4      11 S  36 10.000                                
 
 Add atom      4 valence  3 ND=      2 dihedral       1      4     10     11
 ITRead=  0  0  0  0  0  0  0  0  0  0  0
 MicOpt= -1 -1 -1 -1 -1 -1 -1 -1 -1 -1 -1
 NAtoms=     11 NQM=       11 NQMF=       0 NMMI=      0 NMMIF=      0
                NMic=       0 NMicF=      0.
                    Isotopes and Nuclear Properties:
 (Nuclear quadrupole moments (NQMom) in fm**2, nuclear magnetic moments (NMagM)
  in nuclear magnetons)

  Atom         1           2           3           4           5           6           7           8           9          10
 IAtWgt=          16          12          12          12           1           1           1           1           1           1
 AtmWgt=  15.9949146  12.0000000  12.0000000  12.0000000   1.0078250   1.0078250   1.0078250   1.0078250   1.0078250   1.0078250
 NucSpn=           0           0           0           0           1           1           1           1           1           1
 AtZEff=  -0.0000000  -0.0000000  -0.0000000  -0.0000000  -0.0000000  -0.0000000  -0.0000000  -0.0000000  -0.0000000  -0.0000000
 NQMom=    0.0000000   0.0000000   0.0000000   0.0000000   0.0000000   0.0000000   0.0000000   0.0000000   0.0000000   0.0000000
 NMagM=    0.0000000   0.0000000   0.0000000   0.0000000   2.7928460   2.7928460   2.7928460   2.7928460   2.7928460   2.7928460
 AtZNuc=   8.0000000   6.0000000   6.0000000   6.0000000   1.0000000   1.0000000   1.0000000   1.0000000   1.0000000   1.0000000

  Atom        11
 IAtWgt=           1
 AtmWgt=   1.0078250
 NucSpn=           1
 AtZEff=  -0.0000000
 NQMom=    0.0000000
 NMagM=    2.7928460
 AtZNuc=   1.0000000
 Leave Link  101 at Mon Mar 11 19:44:38 2019, MaxMem=   671088640 cpu:               5.6 elap:               0.3
 (Enter /shared/centos7/gaussian/g16/l103.exe)

 GradGradGradGradGradGradGradGradGradGradGradGradGradGradGradGradGradGrad
 Berny optimization.
 Initialization pass.
                           ----------------------------
                           !    Initial Parameters    !
                           ! (Angstroms and Degrees)  !
 --------------------------                            --------------------------
 ! Name  Definition              Value          Derivative Info.                !
 --------------------------------------------------------------------------------
 ! R1    R(1,2)                  1.4191         calculate D2E/DX2 analytically  !
 ! R2    R(1,4)                  1.3476         calculate D2E/DX2 analytically  !
 ! R3    R(2,3)                  1.5165         calculate D2E/DX2 analytically  !
 ! R4    R(2,5)                  1.0882         calculate D2E/DX2 analytically  !
 ! R5    R(2,6)                  1.0949         calculate D2E/DX2 analytically  !
 ! R6    R(3,7)                  1.089          calculate D2E/DX2 analytically  !
 ! R7    R(3,8)                  1.0892         calculate D2E/DX2 analytically  !
 ! R8    R(3,9)                  1.0896         calculate D2E/DX2 analytically  !
 ! R9    R(4,10)                 1.0776         calculate D2E/DX2 analytically  !
 ! R10   R(4,11)                 1.0839         calculate D2E/DX2 analytically  !
 ! A1    A(2,1,4)              115.243          calculate D2E/DX2 analytically  !
 ! A2    A(1,2,3)              111.7578         calculate D2E/DX2 analytically  !
 ! A3    A(1,2,5)              105.6059         calculate D2E/DX2 analytically  !
 ! A4    A(1,2,6)              108.9976         calculate D2E/DX2 analytically  !
 ! A5    A(3,2,5)              111.025          calculate D2E/DX2 analytically  !
 ! A6    A(3,2,6)              111.0096         calculate D2E/DX2 analytically  !
 ! A7    A(5,2,6)              108.2399         calculate D2E/DX2 analytically  !
 ! A8    A(2,3,7)              110.1748         calculate D2E/DX2 analytically  !
 ! A9    A(2,3,8)              110.6672         calculate D2E/DX2 analytically  !
 ! A10   A(2,3,9)              110.1929         calculate D2E/DX2 analytically  !
 ! A11   A(7,3,8)              108.4429         calculate D2E/DX2 analytically  !
 ! A12   A(7,3,9)              108.7093         calculate D2E/DX2 analytically  !
 ! A13   A(8,3,9)              108.5985         calculate D2E/DX2 analytically  !
 ! A14   A(1,4,10)             114.1229         calculate D2E/DX2 analytically  !
 ! A15   A(1,4,11)             117.9467         calculate D2E/DX2 analytically  !
 ! A16   A(10,4,11)            121.1407         calculate D2E/DX2 analytically  !
 ! D1    D(4,1,2,3)            -74.0415         calculate D2E/DX2 analytically  !
 ! D2    D(4,1,2,5)            165.1239         calculate D2E/DX2 analytically  !
 ! D3    D(4,1,2,6)             49.0289         calculate D2E/DX2 analytically  !
 ! D4    D(2,1,4,10)          -178.6074         calculate D2E/DX2 analytically  !
 ! D5    D(2,1,4,11)           -27.0867         Scan                            !
 ! D6    D(1,2,3,7)            -57.8318         calculate D2E/DX2 analytically  !
 ! D7    D(1,2,3,8)             62.0901         calculate D2E/DX2 analytically  !
 ! D8    D(1,2,3,9)           -177.7822         calculate D2E/DX2 analytically  !
 ! D9    D(5,2,3,7)             59.7957         calculate D2E/DX2 analytically  !
 ! D10   D(5,2,3,8)            179.7176         calculate D2E/DX2 analytically  !
 ! D11   D(5,2,3,9)            -60.1547         calculate D2E/DX2 analytically  !
 ! D12   D(6,2,3,7)           -179.7522         calculate D2E/DX2 analytically  !
 ! D13   D(6,2,3,8)            -59.8303         calculate D2E/DX2 analytically  !
 ! D14   D(6,2,3,9)             60.2974         calculate D2E/DX2 analytically  !
 ! D15   D(1,4,10,11)          150.5177         calculate D2E/DX2 analytically  !
 --------------------------------------------------------------------------------
 Trust Radius=3.00D-01 FncErr=1.00D-07 GrdErr=1.00D-06 EigMax=2.50D+02 EigMin=1.00D-04
 Number of optimizations in scan=  37
 Number of steps in this run=     51 maximum allowed number of steps=    100.
 GradGradGradGradGradGradGradGradGradGradGradGradGradGradGradGradGradGrad

 Leave Link  103 at Mon Mar 11 19:44:38 2019, MaxMem=   671088640 cpu:               0.1 elap:               0.0
 (Enter /shared/centos7/gaussian/g16/l202.exe)
                          Input orientation:                          
 ---------------------------------------------------------------------
 Center     Atomic      Atomic             Coordinates (Angstroms)
 Number     Number       Type             X           Y           Z
 ---------------------------------------------------------------------
      1          8           0       -0.716091   -0.484090   -0.374726
      2          6           0        0.539750   -0.608798    0.274191
      3          6           0        1.488045    0.508039   -0.117107
      4          6           0       -1.513716    0.492837    0.099934
      5          1           0        0.931226   -1.577706   -0.029427
      6          1           0        0.380957   -0.627479    1.357332
      7          1           0        1.632790    0.516960   -1.196366
      8          1           0        1.088379    1.475223    0.184971
      9          1           0        2.455261    0.366066    0.364085
     10          1           0       -2.471565    0.556189   -0.389711
     11          1           0       -1.392935    0.788944    1.135616
 ---------------------------------------------------------------------
                    Distance matrix (angstroms):
                    1          2          3          4          5
     1  O    0.000000
     2  C    1.419078   0.000000
     3  C    2.430823   1.516476   0.000000
     4  C    1.347551   2.336812   3.009635   0.000000
     5  H    2.007207   1.088219   2.160571   3.206497   0.000000
     6  H    2.055261   1.094878   2.165413   2.534944   1.768849
     7  H    2.682245   2.150489   1.088959   3.403157   2.498313
     8  H    2.721816   2.156871   1.089233   2.782663   3.064480
     9  H    3.365425   2.151191   1.089592   3.979777   2.501158
    10  H    2.040610   3.296358   3.969274   1.077608   4.032654
    11  H    2.088028   2.535943   3.154087   1.083930   3.515691
                    6          7          8          9         10
     6  H    0.000000
     7  H    3.065648   0.000000
     8  H    2.509228   1.767129   0.000000
     9  H    2.505276   1.770377   1.769372   0.000000
    10  H    3.548254   4.183057   3.721301   4.987782   0.000000
    11  H    2.280812   3.829769   2.744381   3.947493   1.882615
                   11
    11  H    0.000000
 Stoichiometry    C3H7O(2)
 Framework group  C1[X(C3H7O)]
 Deg. of freedom    27
 Full point group                 C1      NOp   1
 Largest Abelian subgroup         C1      NOp   1
 Largest concise Abelian subgroup C1      NOp   1
                         Standard orientation:                         
 ---------------------------------------------------------------------
 Center     Atomic      Atomic             Coordinates (Angstroms)
 Number     Number       Type             X           Y           Z
 ---------------------------------------------------------------------
      1          8           0        0.716614    0.485565   -0.368858
      2          6           0       -0.540486    0.606537    0.278325
      3          6           0       -1.488783   -0.506740   -0.122982
      4          6           0        1.512529   -0.495353    0.100409
      5          1           0       -0.930616    1.577901   -0.019118
      6          1           0       -0.383940    0.617296    1.361900
      7          1           0       -1.631283   -0.507778   -1.202576
      8          1           0       -1.090459   -1.476375    0.172951
      9          1           0       -2.456897   -0.367513    0.357207
     10          1           0        2.471350   -0.555894   -0.387685
     11          1           0        1.389370   -0.798822    1.133677
 ---------------------------------------------------------------------
 Rotational constants (GHZ):          17.4865226           5.4312129           4.7960547
 Leave Link  202 at Mon Mar 11 19:44:38 2019, MaxMem=   671088640 cpu:               0.2 elap:               0.0
 (Enter /shared/centos7/gaussian/g16/l301.exe)
 Standard basis: 6-311+G(2df,2p) (5D, 7F)
 Ernie: Thresh=  0.10000D-02 Tol=  0.10000D-05 Strict=F.
 There are   219 symmetry adapted cartesian basis functions of A   symmetry.
 There are   199 symmetry adapted basis functions of A   symmetry.
   199 basis functions,   285 primitive gaussians,   219 cartesian basis functions
    17 alpha electrons       16 beta electrons
       nuclear repulsion energy       128.0105810132 Hartrees.
 IExCor= 4336 DFT=T Ex+Corr=M062X ExCW=0 ScaHFX=  0.540000
 ScaDFX=  1.000000  1.000000  1.000000  1.000000 ScalE2=  1.000000  1.000000
 IRadAn=      5 IRanWt=     -1 IRanGd=            0 ICorTp=0 IEmpDi=  4
 NAtoms=   11 NActive=   11 NUniq=   11 SFac= 1.00D+00 NAtFMM=   60 NAOKFM=F Big=F
 Integral buffers will be    131072 words long.
 Raffenetti 2 integral format.
 Two-electron integral symmetry is turned on.
 Leave Link  301 at Mon Mar 11 19:44:38 2019, MaxMem=   671088640 cpu:               0.9 elap:               0.1
 (Enter /shared/centos7/gaussian/g16/l302.exe)
 NPDir=0 NMtPBC=     1 NCelOv=     1 NCel=       1 NClECP=     1 NCelD=      1
         NCelK=      1 NCelE2=     1 NClLst=     1 CellRange=     0.0.
 One-electron integrals computed using PRISM.
 One-electron integral symmetry used in STVInt
 NBasis=   199 RedAO= T EigKep=  8.71D-05  NBF=   199
 NBsUse=   199 1.00D-06 EigRej= -1.00D+00 NBFU=   199
 Precomputing XC quadrature grid using
 IXCGrd= 4 IRadAn=           5 IRanWt=          -1 IRanGd=           0 AccXCQ= 0.00D+00.
 Generated NRdTot=       0 NPtTot=           0 NUsed=           0 NTot=          32
 NSgBfM=   219   219   219   219   219 MxSgAt=    11 MxSgA2=    11.
 Leave Link  302 at Mon Mar 11 19:44:38 2019, MaxMem=   671088640 cpu:               5.1 elap:               0.3
 (Enter /shared/centos7/gaussian/g16/l303.exe)
 DipDrv:  MaxL=1.
 Leave Link  303 at Mon Mar 11 19:44:38 2019, MaxMem=   671088640 cpu:               0.4 elap:               0.0
 (Enter /shared/centos7/gaussian/g16/l401.exe)
 ExpMin= 4.38D-02 ExpMax= 8.59D+03 ExpMxC= 1.30D+03 IAcc=3 IRadAn=         5 AccDes= 0.00D+00
 Harris functional with IExCor= 1009 and IRadAn=       5 diagonalized for initial guess.
 HarFok:  IExCor= 1009 AccDes= 0.00D+00 IRadAn=         5 IDoV= 1 UseB2=F ITyADJ=14
 ICtDFT=  3500011 ScaDFX=  1.000000  1.000000  1.000000  1.000000
 FoFCou: FMM=F IPFlag=           0 FMFlag=      100000 FMFlg1=           0
         NFxFlg=           0 DoJE=T BraDBF=F KetDBF=T FulRan=T
         wScrn=  0.000000 ICntrl=       500 IOpCl=  0 I1Cent=   200000004 NGrid=           0
         NMat0=    1 NMatS0=      1 NMatT0=    0 NMatD0=    1 NMtDS0=    0 NMtDT0=    0
 Petite list used in FoFCou.
 Harris En= -193.576543817512    
 JPrj=0 DoOrth=F DoCkMO=F.
 Initial guess <Sx>= 0.0000 <Sy>= 0.0000 <Sz>= 0.5000 <S**2>= 0.7500 S= 0.5000
 Leave Link  401 at Mon Mar 11 19:44:39 2019, MaxMem=   671088640 cpu:              11.6 elap:               0.6
 (Enter /shared/centos7/gaussian/g16/l502.exe)
 Keep R1 and R2 ints in memory in canonical form, NReq=416958841.
 FoFCou: FMM=F IPFlag=           0 FMFlag=           0 FMFlg1=           0
         NFxFlg=           0 DoJE=F BraDBF=F KetDBF=F FulRan=T
         wScrn=  0.000000 ICntrl=       600 IOpCl=  0 I1Cent=           0 NGrid=           0
         NMat0=    1 NMatS0=  19900 NMatT0=    0 NMatD0=    1 NMtDS0=    0 NMtDT0=    0
 Symmetry not used in FoFCou.
 Two-electron integral symmetry not used.
 UHF open shell SCF:
 Using DIIS extrapolation, IDIIS=  1040.
 NGot=   671088640 LenX=   274956345 LenY=   274907943
 Requested convergence on RMS density matrix=1.00D-08 within 128 cycles.
 Requested convergence on MAX density matrix=1.00D-06.
 Requested convergence on             energy=1.00D-06.
 No special actions if energy rises.

 Cycle   1  Pass 1  IDiag  1:
 E= -193.526356922595    
 DIIS: error= 2.03D-02 at cycle   1 NSaved=   1.
 NSaved= 1 IEnMin= 1 EnMin= -193.526356922595     IErMin= 1 ErrMin= 2.03D-02
 ErrMax= 2.03D-02  0.00D+00 EMaxC= 1.00D-01 BMatC= 6.05D-01 BMatP= 6.05D-01
 IDIUse=3 WtCom= 7.97D-01 WtEn= 2.03D-01
 Coeff-Com:  0.100D+01
 Coeff-En:   0.100D+01
 Coeff:      0.100D+01
 Gap=     0.227 Goal=   None    Shift=    0.000
 Gap=     0.409 Goal=   None    Shift=    0.000
 GapD=    0.227 DampG=1.000 DampE=0.500 DampFc=0.5000 IDamp=-1.
 Damping current iteration by 5.00D-01
 RMSDP=2.15D-03 MaxDP=1.13D-01              OVMax= 1.40D-01

 Cycle   2  Pass 1  IDiag  1:
 E= -193.592963233157     Delta-E=       -0.066606310561 Rises=F Damp=T
 DIIS: error= 5.24D-03 at cycle   2 NSaved=   2.
 NSaved= 2 IEnMin= 2 EnMin= -193.592963233157     IErMin= 2 ErrMin= 5.24D-03
 ErrMax= 5.24D-03  0.00D+00 EMaxC= 1.00D-01 BMatC= 4.87D-02 BMatP= 6.05D-01
 IDIUse=3 WtCom= 9.48D-01 WtEn= 5.24D-02
 Coeff-Com: -0.184D+00 0.118D+01
 Coeff-En:   0.000D+00 0.100D+01
 Coeff:     -0.175D+00 0.117D+01
 Gap=     0.247 Goal=   None    Shift=    0.000
 Gap=     0.411 Goal=   None    Shift=    0.000
 RMSDP=8.38D-04 MaxDP=2.89D-02 DE=-6.66D-02 OVMax= 6.99D-02

 Cycle   3  Pass 1  IDiag  1:
 E= -193.652242191450     Delta-E=       -0.059278958294 Rises=F Damp=F
 DIIS: error= 2.31D-03 at cycle   3 NSaved=   3.
 NSaved= 3 IEnMin= 3 EnMin= -193.652242191450     IErMin= 3 ErrMin= 2.31D-03
 ErrMax= 2.31D-03  0.00D+00 EMaxC= 1.00D-01 BMatC= 4.63D-03 BMatP= 4.87D-02
 IDIUse=3 WtCom= 9.77D-01 WtEn= 2.31D-02
 Coeff-Com: -0.845D-01 0.251D+00 0.833D+00
 Coeff-En:   0.000D+00 0.000D+00 0.100D+01
 Coeff:     -0.826D-01 0.246D+00 0.837D+00
 Gap=     0.247 Goal=   None    Shift=    0.000
 Gap=     0.369 Goal=   None    Shift=    0.000
 RMSDP=1.57D-04 MaxDP=5.21D-03 DE=-5.93D-02 OVMax= 8.83D-03

 Cycle   4  Pass 1  IDiag  1:
 E= -193.653355921552     Delta-E=       -0.001113730101 Rises=F Damp=F
 DIIS: error= 6.80D-04 at cycle   4 NSaved=   4.
 NSaved= 4 IEnMin= 4 EnMin= -193.653355921552     IErMin= 4 ErrMin= 6.80D-04
 ErrMax= 6.80D-04  0.00D+00 EMaxC= 1.00D-01 BMatC= 4.45D-04 BMatP= 4.63D-03
 IDIUse=3 WtCom= 9.93D-01 WtEn= 6.80D-03
 Coeff-Com: -0.162D-01 0.346D-01 0.249D+00 0.733D+00
 Coeff-En:   0.000D+00 0.000D+00 0.000D+00 0.100D+01
 Coeff:     -0.161D-01 0.344D-01 0.247D+00 0.734D+00
 Gap=     0.247 Goal=   None    Shift=    0.000
 Gap=     0.372 Goal=   None    Shift=    0.000
 RMSDP=5.40D-05 MaxDP=2.96D-03 DE=-1.11D-03 OVMax= 9.32D-03

 Cycle   5  Pass 1  IDiag  1:
 E= -193.653494238836     Delta-E=       -0.000138317285 Rises=F Damp=F
 DIIS: error= 3.27D-04 at cycle   5 NSaved=   5.
 NSaved= 5 IEnMin= 5 EnMin= -193.653494238836     IErMin= 5 ErrMin= 3.27D-04
 ErrMax= 3.27D-04  0.00D+00 EMaxC= 1.00D-01 BMatC= 1.61D-04 BMatP= 4.45D-04
 IDIUse=3 WtCom= 9.97D-01 WtEn= 3.27D-03
 Coeff-Com:  0.256D-02-0.149D-01 0.202D-01 0.358D+00 0.634D+00
 Coeff-En:   0.000D+00 0.000D+00 0.000D+00 0.000D+00 0.100D+01
 Coeff:      0.255D-02-0.148D-01 0.201D-01 0.357D+00 0.635D+00
 Gap=     0.248 Goal=   None    Shift=    0.000
 Gap=     0.371 Goal=   None    Shift=    0.000
 RMSDP=2.94D-05 MaxDP=1.30D-03 DE=-1.38D-04 OVMax= 2.70D-03

 Cycle   6  Pass 1  IDiag  1:
 E= -193.653542806159     Delta-E=       -0.000048567323 Rises=F Damp=F
 DIIS: error= 2.14D-04 at cycle   6 NSaved=   6.
 NSaved= 6 IEnMin= 6 EnMin= -193.653542806159     IErMin= 6 ErrMin= 2.14D-04
 ErrMax= 2.14D-04  0.00D+00 EMaxC= 1.00D-01 BMatC= 1.97D-05 BMatP= 1.61D-04
 IDIUse=3 WtCom= 9.98D-01 WtEn= 2.14D-03
 Coeff-Com:  0.627D-02-0.140D-01-0.845D-01-0.145D+00 0.165D-01 0.122D+01
 Coeff-En:   0.000D+00 0.000D+00 0.000D+00 0.000D+00 0.000D+00 0.100D+01
 Coeff:      0.625D-02-0.140D-01-0.844D-01-0.144D+00 0.164D-01 0.122D+01
 Gap=     0.249 Goal=   None    Shift=    0.000
 Gap=     0.371 Goal=   None    Shift=    0.000
 RMSDP=2.83D-05 MaxDP=1.08D-03 DE=-4.86D-05 OVMax= 5.21D-03

 Cycle   7  Pass 1  IDiag  1:
 E= -193.653565036413     Delta-E=       -0.000022230254 Rises=F Damp=F
 DIIS: error= 8.50D-05 at cycle   7 NSaved=   7.
 NSaved= 7 IEnMin= 7 EnMin= -193.653565036413     IErMin= 7 ErrMin= 8.50D-05
 ErrMax= 8.50D-05  0.00D+00 EMaxC= 1.00D-01 BMatC= 6.97D-06 BMatP= 1.97D-05
 IDIUse=1 WtCom= 1.00D+00 WtEn= 0.00D+00
 Coeff-Com:  0.153D-02-0.219D-02-0.338D-01-0.110D+00-0.148D+00 0.504D+00
 Coeff-Com:  0.788D+00
 Coeff:      0.153D-02-0.219D-02-0.338D-01-0.110D+00-0.148D+00 0.504D+00
 Coeff:      0.788D+00
 Gap=     0.249 Goal=   None    Shift=    0.000
 Gap=     0.371 Goal=   None    Shift=    0.000
 RMSDP=9.73D-06 MaxDP=4.06D-04 DE=-2.22D-05 OVMax= 1.71D-03

 Cycle   8  Pass 1  IDiag  1:
 E= -193.653568374460     Delta-E=       -0.000003338047 Rises=F Damp=F
 DIIS: error= 3.07D-05 at cycle   8 NSaved=   8.
 NSaved= 8 IEnMin= 8 EnMin= -193.653568374460     IErMin= 8 ErrMin= 3.07D-05
 ErrMax= 3.07D-05  0.00D+00 EMaxC= 1.00D-01 BMatC= 6.18D-07 BMatP= 6.97D-06
 IDIUse=1 WtCom= 1.00D+00 WtEn= 0.00D+00
 Coeff-Com: -0.119D-02 0.284D-02 0.116D-01 0.123D-01-0.399D-01-0.136D+00
 Coeff-Com:  0.128D+00 0.102D+01
 Coeff:     -0.119D-02 0.284D-02 0.116D-01 0.123D-01-0.399D-01-0.136D+00
 Coeff:      0.128D+00 0.102D+01
 Gap=     0.249 Goal=   None    Shift=    0.000
 Gap=     0.371 Goal=   None    Shift=    0.000
 RMSDP=3.95D-06 MaxDP=1.02D-04 DE=-3.34D-06 OVMax= 6.20D-04

 Cycle   9  Pass 1  IDiag  1:
 E= -193.653568774523     Delta-E=       -0.000000400063 Rises=F Damp=F
 DIIS: error= 7.43D-06 at cycle   9 NSaved=   9.
 NSaved= 9 IEnMin= 9 EnMin= -193.653568774523     IErMin= 9 ErrMin= 7.43D-06
 ErrMax= 7.43D-06  0.00D+00 EMaxC= 1.00D-01 BMatC= 5.46D-08 BMatP= 6.18D-07
 IDIUse=1 WtCom= 1.00D+00 WtEn= 0.00D+00
 Coeff-Com: -0.364D-03 0.731D-03 0.619D-02 0.161D-01 0.107D-01-0.831D-01
 Coeff-Com: -0.733D-01 0.169D+00 0.954D+00
 Coeff:     -0.364D-03 0.731D-03 0.619D-02 0.161D-01 0.107D-01-0.831D-01
 Coeff:     -0.733D-01 0.169D+00 0.954D+00
 Gap=     0.249 Goal=   None    Shift=    0.000
 Gap=     0.371 Goal=   None    Shift=    0.000
 RMSDP=1.16D-06 MaxDP=3.34D-05 DE=-4.00D-07 OVMax= 1.49D-04

 Cycle  10  Pass 1  IDiag  1:
 E= -193.653568805003     Delta-E=       -0.000000030480 Rises=F Damp=F
 DIIS: error= 2.46D-06 at cycle  10 NSaved=  10.
 NSaved=10 IEnMin=10 EnMin= -193.653568805003     IErMin=10 ErrMin= 2.46D-06
 ErrMax= 2.46D-06  0.00D+00 EMaxC= 1.00D-01 BMatC= 6.46D-09 BMatP= 5.46D-08
 IDIUse=1 WtCom= 1.00D+00 WtEn= 0.00D+00
 Coeff-Com:  0.768D-04-0.180D-03-0.143D-03 0.143D-02 0.346D-02 0.196D-02
 Coeff-Com: -0.211D-01-0.692D-01 0.136D+00 0.947D+00
 Coeff:      0.768D-04-0.180D-03-0.143D-03 0.143D-02 0.346D-02 0.196D-02
 Coeff:     -0.211D-01-0.692D-01 0.136D+00 0.947D+00
 Gap=     0.249 Goal=   None    Shift=    0.000
 Gap=     0.371 Goal=   None    Shift=    0.000
 RMSDP=3.26D-07 MaxDP=9.64D-06 DE=-3.05D-08 OVMax= 3.11D-05

 Cycle  11  Pass 1  IDiag  1:
 E= -193.653568807742     Delta-E=       -0.000000002739 Rises=F Damp=F
 DIIS: error= 1.15D-06 at cycle  11 NSaved=  11.
 NSaved=11 IEnMin=11 EnMin= -193.653568807742     IErMin=11 ErrMin= 1.15D-06
 ErrMax= 1.15D-06  0.00D+00 EMaxC= 1.00D-01 BMatC= 1.37D-09 BMatP= 6.46D-09
 IDIUse=1 WtCom= 1.00D+00 WtEn= 0.00D+00
 Coeff-Com:  0.752D-04-0.161D-03-0.894D-03-0.168D-02-0.883D-03 0.127D-01
 Coeff-Com:  0.323D-02-0.475D-01-0.941D-01 0.327D+00 0.802D+00
 Coeff:      0.752D-04-0.161D-03-0.894D-03-0.168D-02-0.883D-03 0.127D-01
 Coeff:      0.323D-02-0.475D-01-0.941D-01 0.327D+00 0.802D+00
 Gap=     0.249 Goal=   None    Shift=    0.000
 Gap=     0.371 Goal=   None    Shift=    0.000
 RMSDP=1.11D-07 MaxDP=4.28D-06 DE=-2.74D-09 OVMax= 9.80D-06

 Cycle  12  Pass 1  IDiag  1:
 E= -193.653568808209     Delta-E=       -0.000000000467 Rises=F Damp=F
 DIIS: error= 2.16D-07 at cycle  12 NSaved=  12.
 NSaved=12 IEnMin=12 EnMin= -193.653568808209     IErMin=12 ErrMin= 2.16D-07
 ErrMax= 2.16D-07  0.00D+00 EMaxC= 1.00D-01 BMatC= 5.10D-11 BMatP= 1.37D-09
 IDIUse=1 WtCom= 1.00D+00 WtEn= 0.00D+00
 Coeff-Com: -0.488D-05 0.972D-05-0.275D-04-0.122D-03-0.348D-03 0.472D-03
 Coeff-Com:  0.180D-02 0.360D-02-0.182D-01-0.690D-01 0.282D-01 0.105D+01
 Coeff:     -0.488D-05 0.972D-05-0.275D-04-0.122D-03-0.348D-03 0.472D-03
 Coeff:      0.180D-02 0.360D-02-0.182D-01-0.690D-01 0.282D-01 0.105D+01
 Gap=     0.249 Goal=   None    Shift=    0.000
 Gap=     0.371 Goal=   None    Shift=    0.000
 RMSDP=3.91D-08 MaxDP=1.45D-06 DE=-4.67D-10 OVMax= 2.93D-06

 Cycle  13  Pass 1  IDiag  1:
 E= -193.653568808237     Delta-E=       -0.000000000028 Rises=F Damp=F
 DIIS: error= 3.80D-08 at cycle  13 NSaved=  13.
 NSaved=13 IEnMin=13 EnMin= -193.653568808237     IErMin=13 ErrMin= 3.80D-08
 ErrMax= 3.80D-08  0.00D+00 EMaxC= 1.00D-01 BMatC= 2.50D-12 BMatP= 5.10D-11
 IDIUse=1 WtCom= 1.00D+00 WtEn= 0.00D+00
 Coeff-Com: -0.337D-05 0.726D-05 0.396D-04 0.768D-04 0.399D-04-0.601D-03
 Coeff-Com: -0.733D-04 0.211D-02 0.522D-02-0.169D-01-0.439D-01-0.217D-01
 Coeff-Com:  0.108D+01
 Coeff:     -0.337D-05 0.726D-05 0.396D-04 0.768D-04 0.399D-04-0.601D-03
 Coeff:     -0.733D-04 0.211D-02 0.522D-02-0.169D-01-0.439D-01-0.217D-01
 Coeff:      0.108D+01
 Gap=     0.249 Goal=   None    Shift=    0.000
 Gap=     0.371 Goal=   None    Shift=    0.000
 RMSDP=1.08D-08 MaxDP=3.96D-07 DE=-2.79D-11 OVMax= 7.39D-07

 Cycle  14  Pass 1  IDiag  1:
 E= -193.653568808237     Delta-E=        0.000000000000 Rises=F Damp=F
 DIIS: error= 1.30D-08 at cycle  14 NSaved=  14.
 NSaved=14 IEnMin=13 EnMin= -193.653568808237     IErMin=14 ErrMin= 1.30D-08
 ErrMax= 1.30D-08  0.00D+00 EMaxC= 1.00D-01 BMatC= 1.86D-13 BMatP= 2.50D-12
 IDIUse=1 WtCom= 1.00D+00 WtEn= 0.00D+00
 Coeff-Com:  0.653D-06-0.121D-05-0.226D-05-0.361D-05 0.438D-05 0.446D-04
 Coeff-Com: -0.899D-04-0.358D-03 0.585D-03 0.479D-02 0.175D-02-0.578D-01
 Coeff-Com: -0.859D-01 0.114D+01
 Coeff:      0.653D-06-0.121D-05-0.226D-05-0.361D-05 0.438D-05 0.446D-04
 Coeff:     -0.899D-04-0.358D-03 0.585D-03 0.479D-02 0.175D-02-0.578D-01
 Coeff:     -0.859D-01 0.114D+01
 Gap=     0.249 Goal=   None    Shift=    0.000
 Gap=     0.371 Goal=   None    Shift=    0.000
 RMSDP=2.80D-09 MaxDP=7.17D-08 DE= 0.00D+00 OVMax= 2.13D-07

 SCF Done:  E(UM062X) =  -193.653568808     A.U. after   14 cycles
            NFock= 14  Conv=0.28D-08     -V/T= 2.0038
 <Sx>= 0.0000 <Sy>= 0.0000 <Sz>= 0.5000 <S**2>= 0.7546 S= 0.5023
 <L.S>= 0.000000000000E+00
 KE= 1.929289254231D+02 PE=-7.077917270585D+02 EE= 1.931986518140D+02
 Annihilation of the first spin contaminant:
 S**2 before annihilation     0.7546,   after     0.7500
 Leave Link  502 at Mon Mar 11 19:45:09 2019, MaxMem=   671088640 cpu:             430.1 elap:              29.9
 (Enter /shared/centos7/gaussian/g16/l801.exe)
 DoSCS=F DFT=T ScalE2(SS,OS)=  1.000000  1.000000
 Range of M.O.s used for correlation:     1   199
 NBasis=   199 NAE=    17 NBE=    16 NFC=     0 NFV=     0
 NROrb=    199 NOA=    17 NOB=    16 NVA=   182 NVB=   183

 **** Warning!!: The largest alpha MO coefficient is  0.32713607D+02


 **** Warning!!: The largest beta MO coefficient is  0.37475519D+02

 Leave Link  801 at Mon Mar 11 19:45:09 2019, MaxMem=   671088640 cpu:               0.4 elap:               0.0
 (Enter /shared/centos7/gaussian/g16/l1101.exe)
 Using compressed storage, NAtomX=    11.
 Will process     12 centers per pass.
 Leave Link 1101 at Mon Mar 11 19:45:09 2019, MaxMem=   671088640 cpu:               5.8 elap:               0.3
 (Enter /shared/centos7/gaussian/g16/l1102.exe)
 Symmetrizing basis deriv contribution to polar:
 IMax=3 JMax=2 DiffMx= 0.00D+00
 Leave Link 1102 at Mon Mar 11 19:45:09 2019, MaxMem=   671088640 cpu:               0.4 elap:               0.0
 (Enter /shared/centos7/gaussian/g16/l1110.exe)
 Forming Gx(P) for the SCF density, NAtomX=    11.
 Integral derivatives from FoFJK, PRISM(SPDF).
 Do as many integral derivatives as possible in FoFJK.
 G2DrvN: MDV=     671087712.
 G2DrvN: will do    12 centers at a time, making    1 passes.
 Calling FoFCou, ICntrl=  3107 FMM=F I1Cent=   0 AccDes= 0.00D+00.
 FoFJK:  IHMeth= 1 ICntrl=    3107 DoSepK=F KAlg= 0 I1Cent=           0 FoldK=F
 IRaf=         0 NMat=       1 IRICut=       1 DoRegI=T DoRafI=F ISym2E= 0 IDoP0=0 IntGTp=1.
 FoFCou: FMM=F IPFlag=           0 FMFlag=      100000 FMFlg1=           0
         NFxFlg=           0 DoJE=F BraDBF=F KetDBF=F FulRan=T
         wScrn=  0.000000 ICntrl=      3107 IOpCl=  1 I1Cent=           0 NGrid=           0
         NMat0=    1 NMatS0=      1 NMatT0=    0 NMatD0=    1 NMtDS0=    0 NMtDT0=    0
 Symmetry not used in FoFCou.
 End of G2Drv F.D. properties file   721 does not exist.
 End of G2Drv F.D. properties file   722 does not exist.
 End of G2Drv F.D. properties file   788 does not exist.
 Leave Link 1110 at Mon Mar 11 19:45:49 2019, MaxMem=   671088640 cpu:             790.9 elap:              39.6
 (Enter /shared/centos7/gaussian/g16/l1002.exe)
 Minotr:  UHF open shell wavefunction.
          IDoAtm=11111111111
          Direct CPHF calculation.
          Differentiating once with respect to nuclear coordinates.
          Requested convergence is 1.0D-08 RMS, and 1.0D-07 maximum.
          Secondary convergence is 1.0D-12 RMS, and 1.0D-12 maximum.
          NewPWx=T KeepS1=F KeepF1=F KeepIn=T MapXYZ=F SortEE=F KeepMc=T.
         3335 words used for storage of precomputed grid.
 Keep R1 and R2 ints in memory in canonical form, NReq=416899964.
 FoFCou: FMM=F IPFlag=           0 FMFlag=           0 FMFlg1=           0
         NFxFlg=           0 DoJE=F BraDBF=F KetDBF=F FulRan=T
         wScrn=  0.000000 ICntrl=       600 IOpCl=  0 I1Cent=           0 NGrid=           0
         NMat0=    1 NMatS0=  19900 NMatT0=    0 NMatD0=    1 NMtDS0=    0 NMtDT0=    0
 Symmetry not used in FoFCou.
 Two-electron integral symmetry not used.
          MDV=     671088640 using IRadAn=       1.
          Solving linear equations simultaneously, MaxMat=       0.
          There are    36 degrees of freedom in the 1st order CPHF.  IDoFFX=6 NUNeed=     0.
     30 vectors produced by pass  0 Test12= 1.67D-14 2.78D-09 XBig12= 1.37D-01 6.00D-02.
 AX will form    30 AO Fock derivatives at one time.
     30 vectors produced by pass  1 Test12= 1.67D-14 2.78D-09 XBig12= 6.98D-03 1.70D-02.
     30 vectors produced by pass  2 Test12= 1.67D-14 2.78D-09 XBig12= 3.22D-04 4.34D-03.
     30 vectors produced by pass  3 Test12= 1.67D-14 2.78D-09 XBig12= 5.22D-06 3.67D-04.
     30 vectors produced by pass  4 Test12= 1.67D-14 2.78D-09 XBig12= 8.38D-08 2.57D-05.
     30 vectors produced by pass  5 Test12= 1.67D-14 2.78D-09 XBig12= 1.02D-09 3.27D-06.
     28 vectors produced by pass  6 Test12= 1.67D-14 2.78D-09 XBig12= 9.52D-12 4.05D-07.
     11 vectors produced by pass  7 Test12= 1.67D-14 2.78D-09 XBig12= 8.19D-14 2.76D-08.
 InvSVY:  IOpt=1 It=  1 EMax= 1.55D-15
 Solved reduced A of dimension   219 with    30 vectors.
 End of Minotr F.D. properties file   721 does not exist.
 End of Minotr F.D. properties file   722 does not exist.
 End of Minotr F.D. properties file   788 does not exist.
 Leave Link 1002 at Mon Mar 11 19:46:41 2019, MaxMem=   671088640 cpu:            1045.0 elap:              52.3
 (Enter /shared/centos7/gaussian/g16/l601.exe)
 Copying SCF densities to generalized density rwf, IOpCl= 1 IROHF=0.

 **********************************************************************

            Population analysis using the SCF density.

 **********************************************************************

 Orbital symmetries:
 Alpha Orbitals:
       Occupied  (A) (A) (A) (A) (A) (A) (A) (A) (A) (A) (A) (A)
                 (A) (A) (A) (A) (A)
       Virtual   (A) (A) (A) (A) (A) (A) (A) (A) (A) (A) (A) (A)
                 (A) (A) (A) (A) (A) (A) (A) (A) (A) (A) (A) (A)
                 (A) (A) (A) (A) (A) (A) (A) (A) (A) (A) (A) (A)
                 (A) (A) (A) (A) (A) (A) (A) (A) (A) (A) (A) (A)
                 (A) (A) (A) (A) (A) (A) (A) (A) (A) (A) (A) (A)
                 (A) (A) (A) (A) (A) (A) (A) (A) (A) (A) (A) (A)
                 (A) (A) (A) (A) (A) (A) (A) (A) (A) (A) (A) (A)
                 (A) (A) (A) (A) (A) (A) (A) (A) (A) (A) (A) (A)
                 (A) (A) (A) (A) (A) (A) (A) (A) (A) (A) (A) (A)
                 (A) (A) (A) (A) (A) (A) (A) (A) (A) (A) (A) (A)
                 (A) (A) (A) (A) (A) (A) (A) (A) (A) (A) (A) (A)
                 (A) (A) (A) (A) (A) (A) (A) (A) (A) (A) (A) (A)
                 (A) (A) (A) (A) (A) (A) (A) (A) (A) (A) (A) (A)
                 (A) (A) (A) (A) (A) (A) (A) (A) (A) (A) (A) (A)
                 (A) (A) (A) (A) (A) (A) (A) (A) (A) (A) (A) (A)
                 (A) (A)
 Beta  Orbitals:
       Occupied  (A) (A) (A) (A) (A) (A) (A) (A) (A) (A) (A) (A)
                 (A) (A) (A) (A)
       Virtual   (A) (A) (A) (A) (A) (A) (A) (A) (A) (A) (A) (A)
                 (A) (A) (A) (A) (A) (A) (A) (A) (A) (A) (A) (A)
                 (A) (A) (A) (A) (A) (A) (A) (A) (A) (A) (A) (A)
                 (A) (A) (A) (A) (A) (A) (A) (A) (A) (A) (A) (A)
                 (A) (A) (A) (A) (A) (A) (A) (A) (A) (A) (A) (A)
                 (A) (A) (A) (A) (A) (A) (A) (A) (A) (A) (A) (A)
                 (A) (A) (A) (A) (A) (A) (A) (A) (A) (A) (A) (A)
                 (A) (A) (A) (A) (A) (A) (A) (A) (A) (A) (A) (A)
                 (A) (A) (A) (A) (A) (A) (A) (A) (A) (A) (A) (A)
                 (A) (A) (A) (A) (A) (A) (A) (A) (A) (A) (A) (A)
                 (A) (A) (A) (A) (A) (A) (A) (A) (A) (A) (A) (A)
                 (A) (A) (A) (A) (A) (A) (A) (A) (A) (A) (A) (A)
                 (A) (A) (A) (A) (A) (A) (A) (A) (A) (A) (A) (A)
                 (A) (A) (A) (A) (A) (A) (A) (A) (A) (A) (A) (A)
                 (A) (A) (A) (A) (A) (A) (A) (A) (A) (A) (A) (A)
                 (A) (A) (A)
 The electronic state is 2-A.
 Alpha  occ. eigenvalues --  -19.65430 -10.59181 -10.57507 -10.52983  -1.19431
 Alpha  occ. eigenvalues --   -0.86925  -0.77352  -0.68989  -0.58262  -0.56904
 Alpha  occ. eigenvalues --   -0.53627  -0.49222  -0.45798  -0.43050  -0.41536
 Alpha  occ. eigenvalues --   -0.39500  -0.23005
 Alpha virt. eigenvalues --    0.01888   0.03642   0.03920   0.04236   0.06818
 Alpha virt. eigenvalues --    0.07350   0.07952   0.08412   0.08696   0.11804
 Alpha virt. eigenvalues --    0.12655   0.13727   0.17734   0.19335   0.19706
 Alpha virt. eigenvalues --    0.22850   0.23339   0.24226   0.25548   0.25680
 Alpha virt. eigenvalues --    0.26930   0.28847   0.31477   0.32229   0.33471
 Alpha virt. eigenvalues --    0.35181   0.41110   0.43658   0.45842   0.47863
 Alpha virt. eigenvalues --    0.49871   0.52042   0.53763   0.54649   0.55801
 Alpha virt. eigenvalues --    0.57605   0.58892   0.60509   0.61811   0.62385
 Alpha virt. eigenvalues --    0.63301   0.65930   0.68853   0.70884   0.72985
 Alpha virt. eigenvalues --    0.77169   0.80491   0.82945   0.83616   0.86722
 Alpha virt. eigenvalues --    0.92066   0.93882   0.96876   0.99879   1.02371
 Alpha virt. eigenvalues --    1.05003   1.09203   1.09454   1.12586   1.14602
 Alpha virt. eigenvalues --    1.15179   1.16445   1.20312   1.20796   1.22692
 Alpha virt. eigenvalues --    1.23717   1.26560   1.28996   1.30051   1.33608
 Alpha virt. eigenvalues --    1.34196   1.37656   1.40143   1.43076   1.45196
 Alpha virt. eigenvalues --    1.47669   1.48701   1.49550   1.52449   1.57947
 Alpha virt. eigenvalues --    1.58640   1.63068   1.64668   1.69678   1.71414
 Alpha virt. eigenvalues --    1.92271   2.02900   2.13221   2.28488   2.31351
 Alpha virt. eigenvalues --    2.42376   2.44973   2.47692   2.55273   2.56102
 Alpha virt. eigenvalues --    2.60157   2.62974   2.82679   2.83715   2.85442
 Alpha virt. eigenvalues --    2.86724   2.93572   2.96337   2.98493   2.99444
 Alpha virt. eigenvalues --    3.05369   3.06791   3.08151   3.11445   3.14163
 Alpha virt. eigenvalues --    3.15034   3.16218   3.18300   3.25221   3.28030
 Alpha virt. eigenvalues --    3.29604   3.31887   3.34625   3.35438   3.42915
 Alpha virt. eigenvalues --    3.44599   3.47666   3.50046   3.54704   3.57971
 Alpha virt. eigenvalues --    3.60629   3.62112   3.65786   3.72425   3.75803
 Alpha virt. eigenvalues --    3.82209   3.85804   3.87779   3.89673   3.94342
 Alpha virt. eigenvalues --    3.96088   3.97079   4.00924   4.01942   4.08499
 Alpha virt. eigenvalues --    4.11238   4.16290   4.19280   4.21355   4.22219
 Alpha virt. eigenvalues --    4.25710   4.26423   4.28235   4.37064   4.45439
 Alpha virt. eigenvalues --    4.49090   4.50687   4.52961   4.55680   4.60994
 Alpha virt. eigenvalues --    4.63036   5.09154   5.13242   5.20689   5.25141
 Alpha virt. eigenvalues --    5.33604   5.44604   5.46049   5.50215   5.55225
 Alpha virt. eigenvalues --    5.58428   5.62238   5.69631   5.82783   5.89998
 Alpha virt. eigenvalues --    6.27872   6.44769   6.79566   7.12770   7.20866
 Alpha virt. eigenvalues --    7.29457   7.66582   7.71210  24.33196  24.45747
 Alpha virt. eigenvalues --   24.47452  50.16359
  Beta  occ. eigenvalues --  -19.64987 -10.59189 -10.56808 -10.52972  -1.18021
  Beta  occ. eigenvalues --   -0.86549  -0.75659  -0.67562  -0.57607  -0.55810
  Beta  occ. eigenvalues --   -0.51359  -0.48690  -0.45399  -0.42689  -0.39696
  Beta  occ. eigenvalues --   -0.37852
  Beta virt. eigenvalues --   -0.00707   0.01647   0.03545   0.03867   0.04303
  Beta virt. eigenvalues --    0.06848   0.07357   0.07963   0.08633   0.08832
  Beta virt. eigenvalues --    0.10990   0.12650   0.13834   0.17942   0.19397
  Beta virt. eigenvalues --    0.19857   0.22788   0.23563   0.24359   0.25877
  Beta virt. eigenvalues --    0.26104   0.27054   0.28913   0.31419   0.32301
  Beta virt. eigenvalues --    0.33862   0.35106   0.41409   0.43936   0.45825
  Beta virt. eigenvalues --    0.48748   0.50325   0.52202   0.53946   0.54602
  Beta virt. eigenvalues --    0.56525   0.58190   0.58923   0.60704   0.61972
  Beta virt. eigenvalues --    0.63430   0.64017   0.65817   0.68908   0.71081
  Beta virt. eigenvalues --    0.73521   0.77685   0.80152   0.83188   0.83630
  Beta virt. eigenvalues --    0.87124   0.92221   0.93758   0.96578   0.99816
  Beta virt. eigenvalues --    1.02578   1.04794   1.09159   1.09687   1.12738
  Beta virt. eigenvalues --    1.14481   1.15143   1.16607   1.20298   1.20957
  Beta virt. eigenvalues --    1.22814   1.24087   1.26755   1.29061   1.30492
  Beta virt. eigenvalues --    1.33857   1.34272   1.37772   1.40316   1.43586
  Beta virt. eigenvalues --    1.45551   1.48106   1.48740   1.49912   1.53216
  Beta virt. eigenvalues --    1.58224   1.58894   1.63140   1.64833   1.70321
  Beta virt. eigenvalues --    1.71555   1.93382   2.03378   2.13660   2.29159
  Beta virt. eigenvalues --    2.32067   2.42727   2.45234   2.48090   2.55762
  Beta virt. eigenvalues --    2.56807   2.61159   2.63518   2.83446   2.84922
  Beta virt. eigenvalues --    2.87103   2.89652   2.96857   2.97910   3.00580
  Beta virt. eigenvalues --    3.02620   3.06890   3.08793   3.09319   3.13774
  Beta virt. eigenvalues --    3.15382   3.16584   3.17396   3.22219   3.28023
  Beta virt. eigenvalues --    3.30429   3.31540   3.34063   3.35794   3.39718
  Beta virt. eigenvalues --    3.45194   3.45692   3.50213   3.51628   3.54972
  Beta virt. eigenvalues --    3.58527   3.61413   3.65437   3.67805   3.72997
  Beta virt. eigenvalues --    3.77446   3.82540   3.86751   3.88895   3.91218
  Beta virt. eigenvalues --    3.95070   3.97090   3.98078   4.01393   4.03248
  Beta virt. eigenvalues --    4.09322   4.12633   4.19116   4.21327   4.22297
  Beta virt. eigenvalues --    4.23573   4.26116   4.27321   4.29524   4.37625
  Beta virt. eigenvalues --    4.45625   4.49481   4.50905   4.53706   4.55841
  Beta virt. eigenvalues --    4.61106   4.65069   5.09334   5.17730   5.22152
  Beta virt. eigenvalues --    5.26220   5.34989   5.45422   5.47748   5.52315
  Beta virt. eigenvalues --    5.57577   5.59161   5.62770   5.70261   5.83467
  Beta virt. eigenvalues --    5.90879   6.28268   6.45062   6.80317   7.13821
  Beta virt. eigenvalues --    7.22158   7.30447   7.67063   7.71136  24.33204
  Beta virt. eigenvalues --   24.46846  24.47651  50.16047
          Condensed to atoms (all electrons):
               1          2          3          4          5          6
     1  O    8.114632   0.191653  -0.096727   0.064893  -0.058067  -0.032911
     2  C    0.191653   5.173548   0.192895  -0.109009   0.445754   0.447810
     3  C   -0.096727   0.192895   5.084195  -0.002254  -0.035621  -0.057636
     4  C    0.064893  -0.109009  -0.002254   5.532128   0.007487  -0.010073
     5  H   -0.058067   0.445754  -0.035621   0.007487   0.524712  -0.026574
     6  H   -0.032911   0.447810  -0.057636  -0.010073  -0.026574   0.536920
     7  H   -0.002543  -0.034826   0.419948   0.000830  -0.006583   0.005543
     8  H   -0.008584  -0.028105   0.405206   0.007284   0.005860  -0.007729
     9  H    0.008860  -0.038852   0.418106   0.001561  -0.004067  -0.002066
    10  H   -0.049579   0.001255   0.001392   0.442709  -0.000087   0.000055
    11  H   -0.044257   0.009579  -0.003411   0.400328  -0.000065   0.004956
               7          8          9         10         11
     1  O   -0.002543  -0.008584   0.008860  -0.049579  -0.044257
     2  C   -0.034826  -0.028105  -0.038852   0.001255   0.009579
     3  C    0.419948   0.405206   0.418106   0.001392  -0.003411
     4  C    0.000830   0.007284   0.001561   0.442709   0.400328
     5  H   -0.006583   0.005860  -0.004067  -0.000087  -0.000065
     6  H    0.005543  -0.007729  -0.002066   0.000055   0.004956
     7  H    0.528333  -0.029661  -0.026286  -0.000128   0.000111
     8  H   -0.029661   0.549327  -0.028451   0.000249  -0.002778
     9  H   -0.026286  -0.028451   0.544922   0.000031  -0.000110
    10  H   -0.000128   0.000249   0.000031   0.471852  -0.028038
    11  H    0.000111  -0.002778  -0.000110  -0.028038   0.520872
          Atomic-Atomic Spin Densities.
               1          2          3          4          5          6
     1  O    0.309553   0.012234  -0.000615  -0.242236  -0.001326  -0.004895
     2  C    0.012234   0.025903  -0.028668  -0.001755   0.004994   0.004123
     3  C   -0.000615  -0.028668   0.059148  -0.015324  -0.004178  -0.002561
     4  C   -0.242236  -0.001755  -0.015324   1.273484  -0.000821  -0.003568
     5  H   -0.001326   0.004994  -0.004178  -0.000821  -0.000677   0.001926
     6  H   -0.004895   0.004123  -0.002561  -0.003568   0.001926   0.002555
     7  H   -0.001995  -0.000875  -0.001006   0.003240  -0.000067  -0.000220
     8  H   -0.000247   0.004697   0.001924  -0.001756  -0.000225  -0.000040
     9  H   -0.000156   0.002246  -0.004106   0.000775  -0.000276  -0.000085
    10  H    0.000987  -0.000568   0.000524  -0.003900   0.000033   0.000267
    11  H   -0.002423   0.005313  -0.001648  -0.024484   0.000272   0.002764
               7          8          9         10         11
     1  O   -0.001995  -0.000247  -0.000156   0.000987  -0.002423
     2  C   -0.000875   0.004697   0.002246  -0.000568   0.005313
     3  C   -0.001006   0.001924  -0.004106   0.000524  -0.001648
     4  C    0.003240  -0.001756   0.000775  -0.003900  -0.024484
     5  H   -0.000067  -0.000225  -0.000276   0.000033   0.000272
     6  H   -0.000220  -0.000040  -0.000085   0.000267   0.002764
     7  H    0.000504   0.000328   0.000171  -0.000014  -0.000138
     8  H    0.000328  -0.013463   0.000546  -0.000018   0.000394
     9  H    0.000171   0.000546  -0.000577  -0.000005  -0.000064
    10  H   -0.000014  -0.000018  -0.000005  -0.038758   0.007191
    11  H   -0.000138   0.000394  -0.000064   0.007191  -0.027039
 Mulliken charges and spin densities:
               1          2
     1  O   -0.087370   0.068883
     2  C   -0.251703   0.027644
     3  C   -0.326094   0.003489
     4  C   -0.335884   0.983654
     5  H    0.147249  -0.000345
     6  H    0.141705   0.000265
     7  H    0.145261  -0.000074
     8  H    0.137382  -0.007859
     9  H    0.126352  -0.001532
    10  H    0.160287  -0.034262
    11  H    0.142814  -0.039863
 Sum of Mulliken charges =  -0.00000   1.00000
 Mulliken charges and spin densities with hydrogens summed into heavy atoms:
               1          2
     1  O   -0.087370   0.068883
     2  C    0.037252   0.027564
     3  C    0.082901  -0.005977
     4  C   -0.032783   0.909530
 APT charges:
               1
     1  O   -0.068296
     2  C   -0.677447
     3  C   -1.040889
     4  C   -0.932526
     5  H    0.423541
     6  H    0.332865
     7  H    0.344383
     8  H    0.282026
     9  H    0.462433
    10  H    0.568248
    11  H    0.305664
 Sum of APT charges =  -0.00000
 APT charges with hydrogens summed into heavy atoms:
               1
     1  O   -0.068296
     2  C    0.078958
     3  C    0.047952
     4  C   -0.058615
 Electronic spatial extent (au):  <R**2>=            315.1252
 Charge=             -0.0000 electrons
 Dipole moment (field-independent basis, Debye):
    X=             -1.0332    Y=             -0.0612    Z=              1.0056  Tot=              1.4431
 Quadrupole moment (field-independent basis, Debye-Ang):
   XX=            -24.8998   YY=            -27.2402   ZZ=            -26.2672
   XY=             -1.3956   XZ=              0.2966   YZ=             -0.0301
 Traceless Quadrupole moment (field-independent basis, Debye-Ang):
   XX=              1.2360   YY=             -1.1045   ZZ=             -0.1315
   XY=             -1.3956   XZ=              0.2966   YZ=             -0.0301
 Octapole moment (field-independent basis, Debye-Ang**2):
  XXX=              3.6637  YYY=              5.6395  ZZZ=             -0.5021  XYY=             -1.9506
  XXY=             -0.2948  XXZ=             -1.7299  XZZ=             -0.1728  YZZ=              0.4589
  YYZ=              0.4566  XYZ=             -0.2148
 Hexadecapole moment (field-independent basis, Debye-Ang**3):
 XXXX=           -269.6237 YYYY=            -94.3509 ZZZZ=            -55.9735 XXXY=             -3.8727
 XXXZ=            -10.0044 YYYX=              1.8566 YYYZ=             -2.8916 ZZZX=              0.7627
 ZZZY=             -0.9255 XXYY=            -65.4495 XXZZ=            -56.4223 YYZZ=            -25.8995
 XXYZ=             -0.5991 YYXZ=              1.0204 ZZXY=             -0.2629
 N-N= 1.280105810132D+02 E-N=-7.077917270294D+02  KE= 1.929289254231D+02
  Exact polarizability:   0.000   0.000   0.000   0.000   0.000   0.000
 Approx polarizability:  49.036  -2.510  46.059  -0.213  -0.476  45.594
                          Isotropic Fermi Contact Couplings
        Atom                 a.u.       MegaHertz       Gauss      10(-4) cm-1
     1  O(17)              0.03685     -22.33579      -7.96997      -7.45042
     2  C(13)             -0.00313      -3.52007      -1.25605      -1.17417
     3  C(13)              0.00077       0.86417       0.30836       0.28825
     4  C(13)              0.19104     214.76404      76.63315      71.63757
     5  H(1)              -0.00001      -0.04184      -0.01493      -0.01396
     6  H(1)               0.00119       5.31998       1.89830       1.77455
     7  H(1)              -0.00012      -0.52796      -0.18839      -0.17611
     8  H(1)               0.00025       1.11070       0.39632       0.37049
     9  H(1)              -0.00054      -2.43079      -0.86737      -0.81083
    10  H(1)              -0.01044     -46.65011     -16.64592     -15.56080
    11  H(1)              -0.00885     -39.56734     -14.11861     -13.19824
 --------------------------------------------------------
       Center         ----  Spin Dipole Couplings  ----
                      3XX-RR        3YY-RR        3ZZ-RR
 --------------------------------------------------------
     1   Atom       -0.240930      0.333181     -0.092251
     2   Atom        0.012613     -0.005766     -0.006847
     3   Atom        0.001623      0.013412     -0.015035
     4   Atom       -0.189700      0.397864     -0.208164
     5   Atom        0.005232      0.000670     -0.005903
     6   Atom        0.003570     -0.003822      0.000252
     7   Atom        0.005629     -0.004040     -0.001589
     8   Atom        0.013375     -0.004515     -0.008859
     9   Atom        0.005420     -0.002298     -0.003122
    10   Atom        0.049512     -0.029134     -0.020378
    11   Atom       -0.047254     -0.017257      0.064511
 --------------------------------------------------------
                        XY            XZ            YZ
 --------------------------------------------------------
     1   Atom        0.418950      0.251526      0.562771
     2   Atom       -0.008919     -0.010099     -0.000026
     3   Atom        0.004917     -0.000293     -0.001100
     4   Atom        0.524487      0.288119      0.505866
     5   Atom       -0.008090     -0.001045      0.001490
     6   Atom       -0.005669     -0.008987      0.004411
     7   Atom        0.000374      0.004332      0.000285
     8   Atom        0.003658     -0.001223     -0.001706
     9   Atom       -0.000324     -0.001857      0.000064
    10   Atom        0.013349     -0.043355      0.025983
    11   Atom        0.028716     -0.004917     -0.016661
 --------------------------------------------------------


 ---------------------------------------------------------------------------------
              Anisotropic Spin Dipole Couplings in Principal Axis System
 ---------------------------------------------------------------------------------

       Atom             a.u.   MegaHertz   Gauss  10(-4) cm-1        Axes

              Baa    -0.4971    35.973    12.836    11.999 -0.4477  0.6454 -0.6189
     1 O(17)  Bbb    -0.4289    31.032    11.073    10.351  0.8067 -0.0071 -0.5909
              Bcc     0.9260   -67.005   -23.909   -22.350  0.3858  0.7638  0.5174
 
              Baa    -0.0134    -1.800    -0.642    -0.600  0.4587  0.5374  0.7076
     2 C(13)  Bbb    -0.0062    -0.830    -0.296    -0.277  0.0386  0.7836 -0.6201
              Bcc     0.0196     2.630     0.938     0.877  0.8877 -0.3118 -0.3387
 
              Baa    -0.0151    -2.023    -0.722    -0.675  0.0065  0.0374  0.9993
     3 C(13)  Bbb    -0.0002    -0.021    -0.008    -0.007  0.9403 -0.3402  0.0066
              Bcc     0.0152     2.045     0.730     0.682  0.3402  0.9396 -0.0374
 
              Baa    -0.5013   -67.270   -24.004   -22.439 -0.6032  0.6283 -0.4913
     4 C(13)  Bbb    -0.4871   -65.369   -23.325   -21.805 -0.6566 -0.0414  0.7531
              Bcc     0.9884   132.639    47.329    44.244  0.4528  0.7769  0.4375
 
              Baa    -0.0064    -3.415    -1.218    -1.139 -0.2385 -0.4539  0.8586
     5 H(1)   Bbb    -0.0051    -2.736    -0.976    -0.913  0.5628  0.6559  0.5031
              Bcc     0.0115     6.151     2.195     2.052  0.7914 -0.6032 -0.0990
 
              Baa    -0.0073    -3.900    -1.392    -1.301  0.6972  0.3247  0.6392
     6 H(1)   Bbb    -0.0066    -3.543    -1.264    -1.182  0.0478  0.8685 -0.4934
              Bcc     0.0140     7.443     2.656     2.483  0.7153 -0.3746 -0.5899
 
              Baa    -0.0041    -2.176    -0.777    -0.726  0.0546  0.9769 -0.2067
     7 H(1)   Bbb    -0.0036    -1.919    -0.685    -0.640 -0.4225  0.2102  0.8817
              Bcc     0.0077     4.095     1.461     1.366  0.9047  0.0392  0.4242
 
              Baa    -0.0094    -5.042    -1.799    -1.682 -0.0020  0.3281  0.9446
     8 H(1)   Bbb    -0.0047    -2.532    -0.904    -0.845 -0.2082  0.9238 -0.3213
              Bcc     0.0142     7.574     2.703     2.526  0.9781  0.1973 -0.0665
 
              Baa    -0.0035    -1.872    -0.668    -0.624  0.2037  0.0024  0.9790
     9 H(1)   Bbb    -0.0023    -1.233    -0.440    -0.411  0.0393  0.9992 -0.0107
              Bcc     0.0058     3.105     1.108     1.036  0.9782 -0.0407 -0.2034
 
              Baa    -0.0649   -34.647   -12.363   -11.557  0.3379 -0.6321  0.6973
    10 H(1)   Bbb    -0.0053    -2.840    -1.013    -0.947  0.2651  0.7748  0.5739
              Bcc     0.0703    37.487    13.376    12.504  0.9031  0.0090 -0.4294
 
              Baa    -0.0648   -34.579   -12.339   -11.534  0.8499 -0.5257 -0.0354
    11 H(1)   Bbb    -0.0040    -2.113    -0.754    -0.705  0.5181  0.8218  0.2372
              Bcc     0.0688    36.692    13.093    12.239 -0.0956 -0.2199  0.9708
 

 ---------------------------------------------------------------------------------

 No NMR shielding tensors so no spin-rotation constants.
 Leave Link  601 at Mon Mar 11 19:46:42 2019, MaxMem=   671088640 cpu:               7.7 elap:               0.4
 (Enter /shared/centos7/gaussian/g16/l701.exe)
 ... and contract with generalized density number  0.
 Compute integral second derivatives.
 Leave Link  701 at Mon Mar 11 19:46:42 2019, MaxMem=   671088640 cpu:               6.8 elap:               0.4
 (Enter /shared/centos7/gaussian/g16/l702.exe)
 L702 exits ... SP integral derivatives will be done elsewhere.
 Leave Link  702 at Mon Mar 11 19:46:42 2019, MaxMem=   671088640 cpu:               0.3 elap:               0.0
 (Enter /shared/centos7/gaussian/g16/l703.exe)
 Integral derivatives from FoFJK, PRISM(SPDF).
 Compute integral second derivatives, UseDBF=F ICtDFT=           0.
 Calling FoFJK, ICntrl=    100147 FMM=F ISym2X=0 I1Cent= 0 IOpClX= 1 NMat=1 NMatS=1 NMatT=0.
 FoFJK:  IHMeth= 1 ICntrl=  100147 DoSepK=F KAlg= 0 I1Cent=           0 FoldK=F
 IRaf=         0 NMat=       1 IRICut=       1 DoRegI=T DoRafI=F ISym2E= 0 IDoP0=0 IntGTp=1.
 FoFCou: FMM=F IPFlag=           0 FMFlag=      100000 FMFlg1=         800
         NFxFlg=           0 DoJE=F BraDBF=F KetDBF=F FulRan=T
         wScrn=  0.000000 ICntrl=    100147 IOpCl=  1 I1Cent=           0 NGrid=           0
         NMat0=    1 NMatS0=      1 NMatT0=    0 NMatD0=    1 NMtDS0=    0 NMtDT0=    0
 Symmetry not used in FoFCou.
 Leave Link  703 at Mon Mar 11 19:47:23 2019, MaxMem=   671088640 cpu:             810.9 elap:              40.6
 (Enter /shared/centos7/gaussian/g16/l716.exe)
 Dipole        =-4.06510935D-01-2.40973170D-02 3.95636024D-01
 Polarizability= 0.00000000D+00 0.00000000D+00 0.00000000D+00
                 0.00000000D+00 0.00000000D+00 0.00000000D+00
 ***** Axes restored to original set *****
 -------------------------------------------------------------------
 Center     Atomic                   Forces (Hartrees/Bohr)
 Number     Number              X              Y              Z
 -------------------------------------------------------------------
      1        8          -0.000000055    0.000000862   -0.000000978
      2        6          -0.000000041   -0.000000271   -0.000001141
      3        6           0.000000019    0.000000283    0.000000609
      4        6           0.000000021    0.000000199    0.000000624
      5        1          -0.000000153    0.000000165   -0.000002731
      6        1          -0.000000056   -0.000001989   -0.000001221
      7        1           0.000000025    0.000001971    0.000000592
      8        1           0.000000124   -0.000000195    0.000002132
      9        1           0.000000016   -0.000000586    0.000000357
     10        1           0.000000018    0.000001027    0.000000710
     11        1           0.000000082   -0.000001465    0.000001048
 -------------------------------------------------------------------
 Cartesian Forces:  Max     0.000002731 RMS     0.000000970
 Force constants in Cartesian coordinates: 
                1             2             3             4             5 
      1  0.456660D+00
      2 -0.195172D+00  0.295327D+00
      3  0.543099D-01  0.123074D+00  0.236159D+00
      4 -0.183914D+00  0.242137D-01 -0.563425D-01  0.478961D+00
      5  0.310879D-02 -0.772433D-01 -0.145095D-01 -0.567874D-01  0.587526D+00
      6 -0.810093D-01 -0.453952D-04 -0.116879D+00 -0.429733D-01  0.368428D-01
      7 -0.430402D-01 -0.232976D-01 -0.474822D-03 -0.113380D+00 -0.481569D-01
      8  0.278226D-02  0.544009D-02 -0.451598D-02 -0.568988D-01 -0.159107D+00
      9 -0.199604D-01 -0.117004D-01  0.547688D-02  0.288976D-01  0.316880D-01
     10 -0.168336D+00  0.141131D+00  0.193535D-01 -0.409142D-01  0.352637D-01
     11  0.155296D+00 -0.211238D+00 -0.933054D-01  0.173018D-01 -0.113497D-01
     12  0.475082D-01 -0.123286D+00 -0.109533D+00 -0.700134D-02  0.151664D-01
     13 -0.262362D-01  0.324100D-01  0.672302D-02 -0.761199D-01  0.766002D-01
     14  0.491395D-02 -0.672888D-03  0.197127D-03  0.853563D-01 -0.263825D+00
     15 -0.133318D-01  0.181540D-01  0.487407D-02  0.335589D-01 -0.767128D-01
     16 -0.125175D-01  0.544791D-02 -0.398366D-01 -0.568994D-01  0.301222D-02
     17  0.194804D-02  0.104752D-02  0.266496D-02  0.112512D-02 -0.544576D-01
     18 -0.135432D-01  0.205303D-02 -0.208255D-01  0.440417D-01  0.163333D-02
     19  0.254159D-02  0.913967D-03 -0.604391D-03 -0.463264D-02 -0.100846D-02
     20  0.192765D-02  0.138957D-02 -0.137865D-02 -0.344925D-02 -0.106683D-02
     21  0.404854D-03 -0.874349D-03  0.179049D-02  0.397739D-03  0.582003D-03
     22  0.238457D-02  0.190883D-02 -0.560097D-05  0.790586D-02 -0.215685D-01
     23 -0.152615D-03  0.270484D-02  0.468153D-03  0.106307D-01 -0.247861D-01
     24 -0.522238D-03 -0.907364D-03 -0.149483D-03 -0.498111D-02  0.978276D-02
     25 -0.460895D-02 -0.303190D-02  0.155708D-02 -0.155147D-01  0.700582D-02
     26 -0.720358D-02 -0.296235D-02  0.137234D-02 -0.190732D-01  0.562964D-02
     27  0.229380D-02  0.152460D-02  0.114568D-02  0.780239D-02 -0.286321D-02
     28 -0.209029D-01  0.372501D-02 -0.549340D-02  0.204797D-02  0.256877D-02
     29  0.280549D-01 -0.434970D-02  0.145757D-01  0.141637D-02 -0.159668D-02
     30  0.173457D-01 -0.174499D-02  0.729465D-02  0.934817D-05 -0.239960D-02
     31 -0.203028D-02  0.117506D-01  0.208137D-01  0.245995D-02 -0.383138D-04
     32  0.449689D-02 -0.944278D-02 -0.286430D-01 -0.383530D-02  0.275996D-03
     33  0.650451D-02 -0.624757D-02 -0.935295D-02 -0.340955D-02  0.789816D-03
                6             7             8             9            10 
      6  0.580876D+00
      7  0.242425D-01  0.546265D+00
      8  0.287699D-01 -0.472409D-01  0.531134D+00
      9 -0.947710D-01  0.190667D-01  0.164458D-01  0.578881D+00
     10  0.877289D-02 -0.131718D-03 -0.159217D-02  0.157534D-03  0.542391D+00
     11  0.244625D-02 -0.485525D-02  0.329789D-02 -0.224662D-02 -0.195016D+00
     12  0.470908D-02 -0.127005D-02  0.190062D-02 -0.232762D-03  0.155304D+00
     13  0.259073D-01  0.892818D-02 -0.207742D-01 -0.629218D-02 -0.341272D-02
     14 -0.701406D-01  0.670339D-02 -0.219318D-01 -0.765019D-02 -0.716950D-03
     15 -0.792799D-01 -0.278449D-02  0.985113D-02  0.358317D-02 -0.127197D-02
     16  0.508549D-01 -0.247295D-02 -0.155777D-03  0.218166D-01  0.372847D-02
     17 -0.115379D-02 -0.599758D-02 -0.330230D-03  0.261131D-01 -0.294011D-03
     18 -0.291364D+00  0.297929D-02 -0.116309D-03 -0.671700D-02  0.305136D-02
     19  0.229737D-01 -0.514612D-01  0.140685D-02  0.337718D-01 -0.355761D-03
     20  0.288027D-01  0.650856D-03 -0.478954D-01 -0.248115D-02 -0.546102D-04
     21 -0.943877D-02  0.351959D-01 -0.633508D-03 -0.315170D+00  0.221504D-03
     22 -0.673885D-02 -0.844544D-01  0.910828D-01  0.289217D-01 -0.102041D-02
     23 -0.689070D-02  0.889326D-01 -0.258193D+00 -0.681524D-01  0.688878D-03
     24  0.257686D-02  0.294412D-01 -0.683421D-01 -0.706950D-01  0.317180D-03
     25 -0.100922D-01 -0.259915D+00  0.312509D-01 -0.105981D+00  0.114813D-02
     26 -0.128590D-01  0.325413D-01 -0.522739D-01  0.173382D-01  0.121484D-02
     27  0.274873D-02 -0.106932D+00  0.168489D-01 -0.100398D+00  0.250951D-03
     28  0.262268D-02 -0.331422D-04  0.138026D-03 -0.163082D-03 -0.280804D+00
     29 -0.357452D-02  0.440795D-03 -0.262356D-03  0.316935D-03  0.818604D-02
     30 -0.387949D-03  0.162879D-03 -0.689180D-05  0.128725D-03 -0.134658D+00
     31  0.543966D-02 -0.305048D-03  0.101849D-05 -0.235162D-03 -0.522922D-01
     32 -0.219776D-02  0.279256D-03  0.121628D-03  0.328760D-03  0.111892D-01
     33  0.121085D-02  0.372661D-03 -0.201502D-03 -0.863463D-04 -0.514987D-01
               11            12            13            14            15 
     11  0.290396D+00
     12  0.191560D+00  0.527802D+00
     13 -0.171673D-03 -0.483736D-02  0.995174D-01
     14  0.159313D-02  0.128645D-02 -0.917535D-01  0.283730D+00
     15 -0.350662D-03 -0.166986D-02 -0.262615D-01  0.750361D-01  0.775962D-01
     16 -0.468176D-02 -0.477979D-02 -0.454907D-03 -0.107661D-02  0.108443D-01
     17  0.790190D-03  0.319984D-02  0.443992D-02  0.187717D-02 -0.280411D-01
     18 -0.277999D-02  0.583508D-03  0.269013D-02 -0.321808D-03 -0.767969D-02
     19  0.742061D-03  0.126175D-03  0.612455D-03  0.585940D-03 -0.871011D-03
     20 -0.140272D-03 -0.707414D-04  0.941951D-03  0.100142D-02 -0.442235D-04
     21  0.121737D-03 -0.151135D-03  0.228734D-04  0.355294D-03  0.578579D-03
     22 -0.159635D-03 -0.674857D-04 -0.258151D-02 -0.365782D-02  0.109642D-02
     23 -0.299144D-03 -0.893026D-03 -0.371538D-02 -0.205305D-02  0.197921D-02
     24  0.121355D-04  0.631123D-04  0.177565D-02  0.154469D-02  0.571640D-03
     25 -0.159201D-02 -0.702998D-03  0.609732D-03 -0.306603D-03 -0.222034D-03
     26 -0.120552D-02 -0.928409D-03  0.107993D-02  0.432826D-03 -0.586401D-03
     27  0.229317D-03  0.103432D-03 -0.338820D-03 -0.265464D-03  0.266853D-03
     28  0.277690D-01 -0.137603D+00 -0.880359D-03  0.409553D-04 -0.475954D-03
     29 -0.275174D-01 -0.216371D-01  0.103715D-02 -0.108089D-03  0.401084D-03
     30 -0.687959D-02 -0.113362D+00  0.513881D-03 -0.132500D-03  0.658373D-03
     31  0.536808D-02 -0.466760D-01  0.178824D-04 -0.889661D-04 -0.280892D-03
     32 -0.443276D-01 -0.662980D-01 -0.944102D-04 -0.439014D-04  0.313612D-03
     33 -0.888069D-01 -0.308311D+00  0.970578D-04  0.908378D-04  0.500490D-03
               16            17            18            19            20 
     16  0.691286D-01
     17  0.765958D-03  0.523932D-01
     18 -0.394983D-01 -0.295477D-02  0.323033D+00
     19 -0.215291D-02 -0.357083D-02  0.855709D-03  0.521174D-01
     20 -0.399048D-02 -0.333056D-02  0.883867D-03  0.218980D-02  0.503262D-01
     21  0.500750D-03  0.144572D-02  0.123248D-02 -0.394076D-01 -0.940956D-03
     22  0.749954D-03  0.120444D-02 -0.421544D-03 -0.227930D-02  0.253402D-02
     23  0.594026D-04  0.105536D-02  0.820145D-04 -0.775107D-03  0.110302D-02
     24 -0.918316D-03 -0.973369D-04  0.365155D-03  0.123837D-01 -0.289924D-01
     25  0.385874D-03  0.278040D-03  0.693773D-03  0.552345D-02 -0.759036D-03
     26  0.645526D-03  0.885421D-03  0.354249D-03 -0.300200D-03 -0.134268D-02
     27 -0.482923D-03 -0.629281D-03 -0.579014D-04 -0.290744D-01  0.418410D-02
     28 -0.354761D-04 -0.283016D-04 -0.265250D-03 -0.439036D-04  0.254739D-04
     29 -0.107526D-03 -0.776607D-04  0.130601D-04 -0.952277D-04  0.862099D-04
     30  0.256244D-03 -0.204120D-03  0.778324D-03 -0.221974D-04  0.141292D-04
     31  0.540261D-03  0.129203D-03 -0.583680D-03  0.130826D-03 -0.163798D-04
     32  0.811446D-04  0.147232D-03  0.115332D-02 -0.887995D-04 -0.130697D-03
     33  0.124308D-02 -0.343287D-03  0.651505D-03 -0.131498D-03  0.232996D-04
               21            22            23            24            25 
     21  0.340785D+00
     22  0.472906D-03  0.892460D-01
     23  0.230247D-03 -0.961847D-01  0.282532D+00
     24 -0.762484D-02 -0.331659D-01  0.729956D-01  0.714322D-01
     25  0.218984D-02 -0.963601D-02  0.703093D-03 -0.454467D-02  0.282102D+00
     26 -0.371351D-03  0.250604D-01 -0.221006D-02  0.140008D-01 -0.337599D-01
     27 -0.120482D-01  0.944203D-02 -0.290453D-03  0.371373D-02  0.117057D+00
     28  0.614192D-04  0.260994D-04 -0.224214D-04  0.218252D-05 -0.626143D-04
     29  0.546695D-04  0.465803D-04  0.270279D-03 -0.395239D-04  0.672525D-04
     30  0.000000D+00  0.808229D-04  0.126436D-03 -0.121296D-03  0.191766D-04
     31 -0.601765D-04 -0.340856D-03 -0.164463D-03  0.212345D-03 -0.320338D-04
     32  0.304915D-04 -0.266397D-03 -0.124009D-03  0.427002D-04  0.144317D-03
     33  0.473003D-04  0.385419D-03  0.344949D-03 -0.132072D-03  0.265976D-04
               26            27            28            29            30 
     26  0.528365D-01
     27 -0.186648D-01  0.104496D+00
     28 -0.100677D-03  0.280942D-04  0.297761D+00
     29  0.264791D-03 -0.197204D-04 -0.329874D-01  0.307413D-01
     30  0.785346D-04 -0.223326D-04  0.137761D+00  0.100490D-01  0.110008D+00
     31 -0.104504D-03 -0.459214D-04  0.292805D-02 -0.605892D-02 -0.214684D-01
     32 -0.547756D-04 -0.539248D-04 -0.112848D-02  0.254932D-02  0.109962D-02
     33  0.265814D-03  0.518937D-04  0.352596D-02 -0.139576D-03 -0.497338D-02
               31            32            33 
     31  0.489234D-01
     32 -0.107774D-01  0.510296D-01
     33  0.428845D-01  0.942242D-01  0.320394D+00
 FormGI is forming the generalized inverse of G from B-inverse, IUseBI=4.
 Leave Link  716 at Mon Mar 11 19:47:23 2019, MaxMem=   671088640 cpu:               0.4 elap:               0.0
 (Enter /shared/centos7/gaussian/g16/l103.exe)

 GradGradGradGradGradGradGradGradGradGradGradGradGradGradGradGradGradGrad
 Berny optimization.
 Red2BG is reusing G-inverse.
 Internal  Forces:  Max     0.000000038 RMS     0.000000012
 Search for a local minimum.
 Step number   1 out of a maximum of   51 on scan point     1 out of    37
 All quantities printed in internal units (Hartrees-Bohrs-Radians)
 RMS Force = .98221D-08 SwitMx=.10000D-02 MixMth= 2
 Mixed Optimization -- En-DIIS/RFO-DIIS
 Second derivative matrix not updated -- analytic derivatives used.
 ITU=  0
     Eigenvalues ---    0.00231   0.00579   0.01306   0.04322   0.04412
     Eigenvalues ---    0.04856   0.06089   0.09877   0.10335   0.12284
     Eigenvalues ---    0.12369   0.13247   0.16452   0.16575   0.24282
     Eigenvalues ---    0.24643   0.30469   0.32917   0.34320   0.34438
     Eigenvalues ---    0.34538   0.35169   0.35500   0.37193   0.39919
     Eigenvalues ---    0.494391000.000001000.000001000.000001000.00000
     Eigenvalues --- 1000.000001000.000001000.000001000.000001000.00000
     Eigenvalues --- 1000.000001000.000001000.000001000.000001000.00000
     Eigenvalues --- 1000.00000
 RFO step:  Lambda= 0.00000000D+00 EMin= 2.30717550D-03
 Linear search not attempted -- first point.
 Iteration  1 RMS(Cart)=  0.00000138 RMS(Int)=  0.00000000
 Iteration  2 RMS(Cart)=  0.00000000 RMS(Int)=  0.00000000
 Iteration  1 RMS(Cart)=  0.00000000 RMS(Int)=  0.00000000
 ITry= 1 IFail=0 DXMaxC= 4.85D-06 DCOld= 1.00D+10 DXMaxT= 3.00D-01 DXLimC= 3.00D+00 Rises=F
 Variable       Old X    -DE/DX   Delta X   Delta X   Delta X     New X
                                 (Linear)    (Quad)   (Total)
    R1        2.68167   0.00000   0.00000   0.00000   0.00000   2.68167
    R2        2.54650   0.00000   0.00000   0.00000   0.00000   2.54650
    R3        2.86572  -0.00000   0.00000  -0.00000  -0.00000   2.86572
    R4        2.05644   0.00000   0.00000   0.00000   0.00000   2.05644
    R5        2.06902  -0.00000   0.00000  -0.00000  -0.00000   2.06902
    R6        2.05783   0.00000   0.00000   0.00000   0.00000   2.05783
    R7        2.05835  -0.00000   0.00000  -0.00000  -0.00000   2.05835
    R8        2.05903  -0.00000   0.00000  -0.00000  -0.00000   2.05903
    R9        2.03638   0.00000   0.00000   0.00000   0.00000   2.03638
   R10        2.04833  -0.00000   0.00000   0.00000   0.00000   2.04833
    A1        2.01137   0.00000   0.00000   0.00000   0.00000   2.01137
    A2        1.95054   0.00000   0.00000   0.00000   0.00000   1.95054
    A3        1.84317  -0.00000   0.00000  -0.00000  -0.00000   1.84317
    A4        1.90237  -0.00000   0.00000  -0.00000  -0.00000   1.90237
    A5        1.93775   0.00000   0.00000   0.00000   0.00000   1.93775
    A6        1.93748  -0.00000   0.00000  -0.00000  -0.00000   1.93748
    A7        1.88914   0.00000   0.00000   0.00000   0.00000   1.88914
    A8        1.92291   0.00000   0.00000   0.00000   0.00000   1.92291
    A9        1.93151  -0.00000   0.00000   0.00000   0.00000   1.93151
   A10        1.92323  -0.00000   0.00000  -0.00000  -0.00000   1.92323
   A11        1.89268   0.00000   0.00000   0.00000   0.00000   1.89268
   A12        1.89734   0.00000   0.00000  -0.00000  -0.00000   1.89734
   A13        1.89540   0.00000   0.00000  -0.00000  -0.00000   1.89540
   A14        1.99182  -0.00000   0.00000  -0.00000  -0.00000   1.99182
   A15        2.05856   0.00000   0.00000  -0.00000  -0.00000   2.05856
   A16        2.11430   0.00000   0.00000  -0.00000  -0.00000   2.11430
    D1       -1.29227   0.00000   0.00000   0.00000   0.00000  -1.29226
    D2        2.88196   0.00000   0.00000   0.00000   0.00000   2.88196
    D3        0.85572   0.00000   0.00000   0.00000   0.00000   0.85572
    D4       -3.11729   0.00000   0.00000   0.00000   0.00000  -3.11729
    D5       -0.47275   0.00000   0.00000   0.00000   0.00000  -0.47275
    D6       -1.00935  -0.00000   0.00000   0.00000   0.00000  -1.00935
    D7        1.08368   0.00000   0.00000   0.00000   0.00000   1.08368
    D8       -3.10288  -0.00000   0.00000   0.00000   0.00000  -3.10288
    D9        1.04363  -0.00000   0.00000   0.00000   0.00000   1.04363
   D10        3.13666   0.00000   0.00000   0.00000   0.00000   3.13666
   D11       -1.04990  -0.00000   0.00000   0.00000   0.00000  -1.04990
   D12       -3.13727   0.00000   0.00000   0.00000   0.00000  -3.13727
   D13       -1.04424   0.00000   0.00000   0.00000   0.00000  -1.04424
   D14        1.05239   0.00000   0.00000   0.00000   0.00000   1.05239
   D15        2.62703   0.00000   0.00000  -0.00000  -0.00000   2.62703
         Item               Value     Threshold  Converged?
 Maximum Force            0.000000     0.000450     YES
 RMS     Force            0.000000     0.000300     YES
 Maximum Displacement     0.000005     0.001800     YES
 RMS     Displacement     0.000001     0.001200     YES
 Predicted change in Energy=-9.344403D-14
 Optimization completed.
    -- Stationary point found.
                           ----------------------------
                           !   Optimized Parameters   !
                           ! (Angstroms and Degrees)  !
 --------------------------                            --------------------------
 ! Name  Definition              Value          Derivative Info.                !
 --------------------------------------------------------------------------------
 ! R1    R(1,2)                  1.4191         -DE/DX =    0.0                 !
 ! R2    R(1,4)                  1.3476         -DE/DX =    0.0                 !
 ! R3    R(2,3)                  1.5165         -DE/DX =    0.0                 !
 ! R4    R(2,5)                  1.0882         -DE/DX =    0.0                 !
 ! R5    R(2,6)                  1.0949         -DE/DX =    0.0                 !
 ! R6    R(3,7)                  1.089          -DE/DX =    0.0                 !
 ! R7    R(3,8)                  1.0892         -DE/DX =    0.0                 !
 ! R8    R(3,9)                  1.0896         -DE/DX =    0.0                 !
 ! R9    R(4,10)                 1.0776         -DE/DX =    0.0                 !
 ! R10   R(4,11)                 1.0839         -DE/DX =    0.0                 !
 ! A1    A(2,1,4)              115.243          -DE/DX =    0.0                 !
 ! A2    A(1,2,3)              111.7578         -DE/DX =    0.0                 !
 ! A3    A(1,2,5)              105.6059         -DE/DX =    0.0                 !
 ! A4    A(1,2,6)              108.9976         -DE/DX =    0.0                 !
 ! A5    A(3,2,5)              111.025          -DE/DX =    0.0                 !
 ! A6    A(3,2,6)              111.0096         -DE/DX =    0.0                 !
 ! A7    A(5,2,6)              108.2399         -DE/DX =    0.0                 !
 ! A8    A(2,3,7)              110.1748         -DE/DX =    0.0                 !
 ! A9    A(2,3,8)              110.6672         -DE/DX =    0.0                 !
 ! A10   A(2,3,9)              110.1929         -DE/DX =    0.0                 !
 ! A11   A(7,3,8)              108.4429         -DE/DX =    0.0                 !
 ! A12   A(7,3,9)              108.7093         -DE/DX =    0.0                 !
 ! A13   A(8,3,9)              108.5985         -DE/DX =    0.0                 !
 ! A14   A(1,4,10)             114.1229         -DE/DX =    0.0                 !
 ! A15   A(1,4,11)             117.9467         -DE/DX =    0.0                 !
 ! A16   A(10,4,11)            121.1407         -DE/DX =    0.0                 !
 ! D1    D(4,1,2,3)            -74.0415         -DE/DX =    0.0                 !
 ! D2    D(4,1,2,5)            165.1239         -DE/DX =    0.0                 !
 ! D3    D(4,1,2,6)             49.0289         -DE/DX =    0.0                 !
 ! D4    D(2,1,4,10)          -178.6074         -DE/DX =    0.0                 !
 ! D5    D(2,1,4,11)           -27.0867         -DE/DX =    0.0                 !
 ! D6    D(1,2,3,7)            -57.8318         -DE/DX =    0.0                 !
 ! D7    D(1,2,3,8)             62.0901         -DE/DX =    0.0                 !
 ! D8    D(1,2,3,9)           -177.7822         -DE/DX =    0.0                 !
 ! D9    D(5,2,3,7)             59.7957         -DE/DX =    0.0                 !
 ! D10   D(5,2,3,8)            179.7176         -DE/DX =    0.0                 !
 ! D11   D(5,2,3,9)            -60.1547         -DE/DX =    0.0                 !
 ! D12   D(6,2,3,7)           -179.7522         -DE/DX =    0.0                 !
 ! D13   D(6,2,3,8)            -59.8303         -DE/DX =    0.0                 !
 ! D14   D(6,2,3,9)             60.2974         -DE/DX =    0.0                 !
 ! D15   D(1,4,10,11)          150.5177         -DE/DX =    0.0                 !
 --------------------------------------------------------------------------------
 Lowest energy point so far.  Saving SCF results.
 Iteration  1 RMS(Cart)=  0.03442360 RMS(Int)=  0.01578299
 Iteration  2 RMS(Cart)=  0.00177672 RMS(Int)=  0.01569249
 Iteration  3 RMS(Cart)=  0.00003801 RMS(Int)=  0.01569245
 Iteration  4 RMS(Cart)=  0.00000191 RMS(Int)=  0.01569245
 Iteration  5 RMS(Cart)=  0.00000006 RMS(Int)=  0.01569245
 Iteration  1 RMS(Cart)=  0.01150328 RMS(Int)=  0.00525753
 Iteration  2 RMS(Cart)=  0.00386525 RMS(Int)=  0.00581595
 Iteration  3 RMS(Cart)=  0.00130196 RMS(Int)=  0.00621880
 Iteration  4 RMS(Cart)=  0.00043901 RMS(Int)=  0.00637354
 Iteration  5 RMS(Cart)=  0.00014809 RMS(Int)=  0.00642767
 Iteration  6 RMS(Cart)=  0.00004996 RMS(Int)=  0.00644614
 Iteration  7 RMS(Cart)=  0.00001685 RMS(Int)=  0.00645240
 Iteration  8 RMS(Cart)=  0.00000569 RMS(Int)=  0.00645451
 Iteration  9 RMS(Cart)=  0.00000192 RMS(Int)=  0.00645522
 Iteration 10 RMS(Cart)=  0.00000065 RMS(Int)=  0.00645546
 GradGradGradGradGradGradGradGradGradGradGradGradGradGradGradGradGradGrad

 Leave Link  103 at Mon Mar 11 19:47:23 2019, MaxMem=   671088640 cpu:               0.8 elap:               0.1
 (Enter /shared/centos7/gaussian/g16/l202.exe)
                          Input orientation:                          
 ---------------------------------------------------------------------
 Center     Atomic      Atomic             Coordinates (Angstroms)
 Number     Number       Type             X           Y           Z
 ---------------------------------------------------------------------
      1          8           0       -0.717322   -0.486922   -0.390714
      2          6           0        0.533572   -0.615323    0.266983
      3          6           0        1.481240    0.509309   -0.102960
      4          6           0       -1.522137    0.481545    0.089127
[...]
 Alpha virt. eigenvalues --    0.92068   0.93882   0.96878   0.99880   1.02369
 Alpha virt. eigenvalues --    1.05003   1.09203   1.09452   1.12586   1.14599
 Alpha virt. eigenvalues --    1.15180   1.16445   1.20313   1.20793   1.22691
 Alpha virt. eigenvalues --    1.23717   1.26562   1.28994   1.30050   1.33609
 Alpha virt. eigenvalues --    1.34196   1.37656   1.40143   1.43074   1.45196
 Alpha virt. eigenvalues --    1.47667   1.48702   1.49550   1.52450   1.57947
 Alpha virt. eigenvalues --    1.58640   1.63068   1.64665   1.69680   1.71412
 Alpha virt. eigenvalues --    1.92272   2.02898   2.13222   2.28485   2.31352
 Alpha virt. eigenvalues --    2.42377   2.44973   2.47691   2.55271   2.56102
 Alpha virt. eigenvalues --    2.60152   2.62968   2.82680   2.83714   2.85442
 Alpha virt. eigenvalues --    2.86723   2.93575   2.96337   2.98493   2.99442
 Alpha virt. eigenvalues --    3.05370   3.06791   3.08151   3.11446   3.14165
 Alpha virt. eigenvalues --    3.15032   3.16219   3.18299   3.25219   3.28031
 Alpha virt. eigenvalues --    3.29603   3.31887   3.34624   3.35438   3.42916
 Alpha virt. eigenvalues --    3.44596   3.47665   3.50045   3.54704   3.57968
 Alpha virt. eigenvalues --    3.60627   3.62113   3.65789   3.72423   3.75803
 Alpha virt. eigenvalues --    3.82209   3.85806   3.87780   3.89672   3.94343
 Alpha virt. eigenvalues --    3.96088   3.97078   4.00923   4.01941   4.08499
 Alpha virt. eigenvalues --    4.11239   4.16289   4.19282   4.21353   4.22219
 Alpha virt. eigenvalues --    4.25707   4.26422   4.28234   4.37062   4.45437
 Alpha virt. eigenvalues --    4.49087   4.50690   4.52961   4.55678   4.60995
 Alpha virt. eigenvalues --    4.63035   5.09154   5.13238   5.20689   5.25141
 Alpha virt. eigenvalues --    5.33604   5.44601   5.46049   5.50214   5.55226
 Alpha virt. eigenvalues --    5.58427   5.62238   5.69630   5.82783   5.89996
 Alpha virt. eigenvalues --    6.27870   6.44767   6.79565   7.12769   7.20866
 Alpha virt. eigenvalues --    7.29457   7.66580   7.71210  24.33195  24.45746
 Alpha virt. eigenvalues --   24.47450  50.16358
  Beta  occ. eigenvalues --  -19.64987 -10.59189 -10.56808 -10.52972  -1.18021
  Beta  occ. eigenvalues --   -0.86549  -0.75658  -0.67563  -0.57607  -0.55810
  Beta  occ. eigenvalues --   -0.51358  -0.48690  -0.45399  -0.42688  -0.39697
  Beta  occ. eigenvalues --   -0.37853
  Beta virt. eigenvalues --   -0.00707   0.01648   0.03545   0.03867   0.04303
  Beta virt. eigenvalues --    0.06848   0.07358   0.07963   0.08633   0.08832
  Beta virt. eigenvalues --    0.10990   0.12650   0.13834   0.17943   0.19397
  Beta virt. eigenvalues --    0.19856   0.22788   0.23563   0.24359   0.25877
  Beta virt. eigenvalues --    0.26104   0.27054   0.28913   0.31420   0.32300
  Beta virt. eigenvalues --    0.33863   0.35106   0.41408   0.43937   0.45826
  Beta virt. eigenvalues --    0.48748   0.50326   0.52202   0.53947   0.54601
  Beta virt. eigenvalues --    0.56524   0.58190   0.58922   0.60703   0.61971
  Beta virt. eigenvalues --    0.63429   0.64017   0.65816   0.68908   0.71080
  Beta virt. eigenvalues --    0.73521   0.77684   0.80153   0.83189   0.83629
  Beta virt. eigenvalues --    0.87122   0.92222   0.93758   0.96580   0.99816
  Beta virt. eigenvalues --    1.02577   1.04795   1.09159   1.09685   1.12738
  Beta virt. eigenvalues --    1.14478   1.15143   1.16607   1.20299   1.20954
  Beta virt. eigenvalues --    1.22813   1.24087   1.26757   1.29059   1.30492
  Beta virt. eigenvalues --    1.33858   1.34272   1.37772   1.40316   1.43584
  Beta virt. eigenvalues --    1.45550   1.48105   1.48741   1.49911   1.53217
  Beta virt. eigenvalues --    1.58225   1.58894   1.63140   1.64830   1.70322
  Beta virt. eigenvalues --    1.71553   1.93382   2.03376   2.13661   2.29156
  Beta virt. eigenvalues --    2.32068   2.42728   2.45234   2.48089   2.55760
  Beta virt. eigenvalues --    2.56807   2.61155   2.63510   2.83446   2.84921
  Beta virt. eigenvalues --    2.87102   2.89652   2.96857   2.97912   3.00578
  Beta virt. eigenvalues --    3.02619   3.06890   3.08793   3.09319   3.13775
  Beta virt. eigenvalues --    3.15383   3.16583   3.17397   3.22218   3.28024
  Beta virt. eigenvalues --    3.30429   3.31540   3.34063   3.35793   3.39717
  Beta virt. eigenvalues --    3.45190   3.45694   3.50210   3.51627   3.54972
  Beta virt. eigenvalues --    3.58525   3.61412   3.65438   3.67808   3.72995
  Beta virt. eigenvalues --    3.77445   3.82541   3.86753   3.88895   3.91219
  Beta virt. eigenvalues --    3.95070   3.97089   3.98078   4.01392   4.03247
  Beta virt. eigenvalues --    4.09322   4.12634   4.19114   4.21327   4.22296
  Beta virt. eigenvalues --    4.23573   4.26114   4.27319   4.29521   4.37624
  Beta virt. eigenvalues --    4.45624   4.49478   4.50907   4.53707   4.55839
  Beta virt. eigenvalues --    4.61107   4.65068   5.09334   5.17727   5.22152
  Beta virt. eigenvalues --    5.26220   5.34989   5.45418   5.47747   5.52314
  Beta virt. eigenvalues --    5.57576   5.59163   5.62771   5.70259   5.83467
  Beta virt. eigenvalues --    5.90876   6.28265   6.45059   6.80316   7.13820
  Beta virt. eigenvalues --    7.22159   7.30447   7.67061   7.71136  24.33203
  Beta virt. eigenvalues --   24.46845  24.47649  50.16046
          Condensed to atoms (all electrons):
               1          2          3          4          5          6
     1  O    8.114600   0.191689  -0.096739   0.064888  -0.058063  -0.032910
     2  C    0.191689   5.173478   0.192914  -0.108968   0.445750   0.447789
     3  C   -0.096739   0.192914   5.084211  -0.002274  -0.035624  -0.057624
     4  C    0.064888  -0.108968  -0.002274   5.532101   0.007488  -0.010075
     5  H   -0.058063   0.445750  -0.035624   0.007488   0.524712  -0.026572
     6  H   -0.032910   0.447789  -0.057624  -0.010075  -0.026572   0.536932
     7  H   -0.002547  -0.034823   0.419944   0.000830  -0.006583   0.005543
     8  H   -0.008582  -0.028099   0.405199   0.007285   0.005860  -0.007729
     9  H    0.008861  -0.038854   0.418109   0.001559  -0.004068  -0.002066
    10  H   -0.049574   0.001252   0.001394   0.442707  -0.000087   0.000055
    11  H   -0.044259   0.009552  -0.003400   0.400330  -0.000065   0.004961
               7          8          9         10         11
     1  O   -0.002547  -0.008582   0.008861  -0.049574  -0.044259
     2  C   -0.034823  -0.028099  -0.038854   0.001252   0.009552
     3  C    0.419944   0.405199   0.418109   0.001394  -0.003400
     4  C    0.000830   0.007285   0.001559   0.442707   0.400330
     5  H   -0.006583   0.005860  -0.004068  -0.000087  -0.000065
     6  H    0.005543  -0.007729  -0.002066   0.000055   0.004961
     7  H    0.528338  -0.029658  -0.026288  -0.000128   0.000111
     8  H   -0.029658   0.549319  -0.028452   0.000249  -0.002776
     9  H   -0.026288  -0.028452   0.544927   0.000031  -0.000110
    10  H   -0.000128   0.000249   0.000031   0.471862  -0.028043
    11  H    0.000111  -0.002776  -0.000110  -0.028043   0.520899
          Atomic-Atomic Spin Densities.
               1          2          3          4          5          6
     1  O    0.309575   0.012221  -0.000605  -0.242248  -0.001326  -0.004893
     2  C    0.012221   0.025879  -0.028647  -0.001687   0.004989   0.004108
     3  C   -0.000605  -0.028647   0.059120  -0.015357  -0.004174  -0.002554
     4  C   -0.242248  -0.001687  -0.015357   1.273449  -0.000821  -0.003570
     5  H   -0.001326   0.004989  -0.004174  -0.000821  -0.000677   0.001927
     6  H   -0.004893   0.004108  -0.002554  -0.003570   0.001927   0.002555
     7  H   -0.001996  -0.000873  -0.001008   0.003241  -0.000067  -0.000220
     8  H   -0.000247   0.004694   0.001927  -0.001756  -0.000224  -0.000040
     9  H   -0.000156   0.002246  -0.004105   0.000774  -0.000276  -0.000085
    10  H    0.000987  -0.000572   0.000526  -0.003899   0.000033   0.000267
    11  H   -0.002421   0.005300  -0.001644  -0.024484   0.000272   0.002766
               7          8          9         10         11
     1  O   -0.001996  -0.000247  -0.000156   0.000987  -0.002421
     2  C   -0.000873   0.004694   0.002246  -0.000572   0.005300
     3  C   -0.001008   0.001927  -0.004105   0.000526  -0.001644
     4  C    0.003241  -0.001756   0.000774  -0.003899  -0.024484
     5  H   -0.000067  -0.000224  -0.000276   0.000033   0.000272
     6  H   -0.000220  -0.000040  -0.000085   0.000267   0.002766
     7  H    0.000505   0.000328   0.000170  -0.000014  -0.000138
     8  H    0.000328  -0.013463   0.000546  -0.000018   0.000393
     9  H    0.000170   0.000546  -0.000578  -0.000005  -0.000064
    10  H   -0.000014  -0.000018  -0.000005  -0.038755   0.007192
    11  H   -0.000138   0.000393  -0.000064   0.007192  -0.027031
 Mulliken charges and spin densities:
               1          2
     1  O   -0.087363   0.068890
     2  C   -0.251679   0.027657
     3  C   -0.326109   0.003477
     4  C   -0.335872   0.983643
     5  H    0.147251  -0.000345
     6  H    0.141695   0.000261
     7  H    0.145260  -0.000073
     8  H    0.137385  -0.007860
     9  H    0.126351  -0.001532
    10  H    0.160282  -0.034259
    11  H    0.142799  -0.039860
 Sum of Mulliken charges =  -0.00000   1.00000
 Mulliken charges and spin densities with hydrogens summed into heavy atoms:
               1          2
     1  O   -0.087363   0.068890
     2  C    0.037268   0.027574
     3  C    0.082887  -0.005987
     4  C   -0.032791   0.909523
 Electronic spatial extent (au):  <R**2>=            315.1341
 Charge=             -0.0000 electrons
 Dipole moment (field-independent basis, Debye):
    X=             -1.0332    Y=             -0.0610    Z=              1.0058  Tot=              1.4432
 Quadrupole moment (field-independent basis, Debye-Ang):
   XX=            -24.8995   YY=            -27.2404   ZZ=            -26.2672
   XY=             -1.3952   XZ=              0.2968   YZ=             -0.0299
 Traceless Quadrupole moment (field-independent basis, Debye-Ang):
   XX=              1.2362   YY=             -1.1047   ZZ=             -0.1315
   XY=             -1.3952   XZ=              0.2968   YZ=             -0.0299
 Octapole moment (field-independent basis, Debye-Ang**2):
  XXX=              3.6644  YYY=              5.6396  ZZZ=             -0.5020  XYY=             -1.9512
  XXY=             -0.2949  XXZ=             -1.7295  XZZ=             -0.1727  YZZ=              0.4588
  YYZ=              0.4561  XYZ=             -0.2147
 Hexadecapole moment (field-independent basis, Debye-Ang**3):
 XXXX=           -269.6434 YYYY=            -94.3403 ZZZZ=            -55.9759 XXXY=             -3.8737
 XXXZ=            -10.0037 YYYX=              1.8582 YYYZ=             -2.8905 ZZZX=              0.7633
 ZZZY=             -0.9257 XXYY=            -65.4517 XXZZ=            -56.4253 YYZZ=            -25.8990
 XXYZ=             -0.5991 YYXZ=              1.0196 ZZXY=             -0.2630
 N-N= 1.280097706814D+02 E-N=-7.077900710637D+02  KE= 1.929288967256D+02
                          Isotropic Fermi Contact Couplings
        Atom                 a.u.       MegaHertz       Gauss      10(-4) cm-1
     1  O(17)              0.03685     -22.33746      -7.97056      -7.45098
     2  C(13)             -0.00313      -3.52024      -1.25611      -1.17423
     3  C(13)              0.00077       0.86400       0.30830       0.28820
     4  C(13)              0.19106     214.78434      76.64039      71.64434
     5  H(1)              -0.00001      -0.04015      -0.01432      -0.01339
     6  H(1)               0.00119       5.31656       1.89708       1.77341
     7  H(1)              -0.00012      -0.52693      -0.18802      -0.17576
     8  H(1)               0.00025       1.11120       0.39651       0.37066
     9  H(1)              -0.00054      -2.43026      -0.86718      -0.81065
    10  H(1)              -0.01044     -46.64328     -16.64348     -15.55852
    11  H(1)              -0.00885     -39.55956     -14.11584     -13.19565
 --------------------------------------------------------
       Center         ----  Spin Dipole Couplings  ----
                      3XX-RR        3YY-RR        3ZZ-RR
 --------------------------------------------------------
     1   Atom       -0.240950      0.333418     -0.092468
     2   Atom        0.012611     -0.005765     -0.006847
     3   Atom        0.001626      0.013405     -0.015031
     4   Atom       -0.189750      0.398082     -0.208332
     5   Atom        0.005232      0.000670     -0.005902
     6   Atom        0.003570     -0.003823      0.000253
     7   Atom        0.005629     -0.004039     -0.001589
     8   Atom        0.013371     -0.004514     -0.008857
     9   Atom        0.005419     -0.002298     -0.003122
    10   Atom        0.049511     -0.029125     -0.020386
    11   Atom       -0.047258     -0.017260      0.064517
 --------------------------------------------------------
                        XY            XZ            YZ
 --------------------------------------------------------
     1   Atom        0.419020      0.251455      0.562710
     2   Atom       -0.008919     -0.010098     -0.000026
     3   Atom        0.004920     -0.000293     -0.001099
     4   Atom        0.524498      0.287997      0.505766
     5   Atom       -0.008089     -0.001046      0.001491
     6   Atom       -0.005669     -0.008988      0.004411
     7   Atom        0.000374      0.004331      0.000285
     8   Atom        0.003657     -0.001222     -0.001706
     9   Atom       -0.000324     -0.001857      0.000065
    10   Atom        0.013347     -0.043356      0.025980
    11   Atom        0.028710     -0.004913     -0.016649
 --------------------------------------------------------


 ---------------------------------------------------------------------------------
              Anisotropic Spin Dipole Couplings in Principal Axis System
 ---------------------------------------------------------------------------------

       Atom             a.u.   MegaHertz   Gauss  10(-4) cm-1        Axes

              Baa    -0.4972    35.974    12.836    12.000 -0.4478  0.6453 -0.6190
     1 O(17)  Bbb    -0.4289    31.034    11.074    10.352  0.8066 -0.0071 -0.5910
              Bcc     0.9260   -67.008   -23.910   -22.351  0.3858  0.7639  0.5173
 
              Baa    -0.0134    -1.800    -0.642    -0.600  0.4588  0.5374  0.7076
     2 C(13)  Bbb    -0.0062    -0.830    -0.296    -0.277  0.0386  0.7835 -0.6201
              Bcc     0.0196     2.630     0.938     0.877  0.8877 -0.3118 -0.3387
 
              Baa    -0.0151    -2.023    -0.722    -0.675  0.0065  0.0374  0.9993
     3 C(13)  Bbb    -0.0002    -0.021    -0.008    -0.007  0.9402 -0.3405  0.0066
              Bcc     0.0152     2.044     0.729     0.682  0.3406  0.9395 -0.0374
 
              Baa    -0.5013   -67.269   -24.003   -22.438 -0.6033  0.6282 -0.4914
     4 C(13)  Bbb    -0.4871   -65.368   -23.325   -21.804 -0.6565 -0.0414  0.7532
              Bcc     0.9884   132.636    47.328    44.243  0.4528  0.7770  0.4373
 
              Baa    -0.0064    -3.415    -1.218    -1.139 -0.2385 -0.4539  0.8585
     5 H(1)   Bbb    -0.0051    -2.736    -0.976    -0.913  0.5628  0.6558  0.5031
              Bcc     0.0115     6.151     2.195     2.052  0.7914 -0.6032 -0.0991
 
              Baa    -0.0073    -3.900    -1.392    -1.301  0.6972  0.3247  0.6392
     6 H(1)   Bbb    -0.0066    -3.543    -1.264    -1.182  0.0478  0.8685 -0.4934
              Bcc     0.0140     7.444     2.656     2.483  0.7153 -0.3745 -0.5899
 
              Baa    -0.0041    -2.176    -0.776    -0.726  0.0547  0.9769 -0.2068
     7 H(1)   Bbb    -0.0036    -1.919    -0.685    -0.640 -0.4224  0.2103  0.8817
              Bcc     0.0077     4.095     1.461     1.366  0.9047  0.0392  0.4242
 
              Baa    -0.0094    -5.041    -1.799    -1.681 -0.0020  0.3281  0.9446
     8 H(1)   Bbb    -0.0047    -2.531    -0.903    -0.844 -0.2082  0.9238 -0.3213
              Bcc     0.0142     7.572     2.702     2.526  0.9781  0.1973 -0.0664
 
              Baa    -0.0035    -1.871    -0.668    -0.624  0.2037  0.0023  0.9790
     9 H(1)   Bbb    -0.0023    -1.233    -0.440    -0.411  0.0394  0.9992 -0.0106
              Bcc     0.0058     3.105     1.108     1.036  0.9782 -0.0407 -0.2034
 
              Baa    -0.0649   -34.646   -12.362   -11.557  0.3379 -0.6320  0.6974
    10 H(1)   Bbb    -0.0053    -2.841    -1.014    -0.948  0.2650  0.7749  0.5738
              Bcc     0.0703    37.486    13.376    12.504  0.9031  0.0090 -0.4294
 
              Baa    -0.0648   -34.578   -12.338   -11.534  0.8500 -0.5256 -0.0354
    11 H(1)   Bbb    -0.0040    -2.114    -0.754    -0.705  0.5181  0.8218  0.2370
              Bcc     0.0688    36.692    13.093    12.239 -0.0955 -0.2198  0.9709
 

 ---------------------------------------------------------------------------------

 No NMR shielding tensors so no spin-rotation constants.
 Leave Link  601 at Mon Mar 11 20:56:44 2019, MaxMem=   671088640 cpu:               7.9 elap:               0.4
 (Enter /shared/centos7/gaussian/g16/l9999.exe)
 1\1\GINC-C0259\Scan\UM062X\6-311+G(2df,2p)\C3H7O1(2)\UNDERKOFFLER.C\11
 -Mar-2019\0\\#p m062x/6-311+g(2df,2p) Opt=(CalcFC,ModRedun)\\Gaussian 
 Input Prepared from Scan Object\\0,2\O,-0.5270033268,0.095973814,-0.84
 82040882\C,0.4455665688,-0.624847346,-0.1077037365\C,1.5090419859,0.29
 19260821,0.4652282329\C,-1.3998582073,0.8086980655,-0.1092641541\H,0.8
 791646076,-1.3358274078,-0.8082219825\H,-0.0561163135,-1.1881455604,0.
 6858678962\H,1.9957980372,0.848244301,-0.3344009266\H,1.0682152491,1.0
 040617206,1.1616206332\H,2.2624685487,-0.2907082749,0.9944702352\H,-2.
 1445937604,1.3296867637,-0.688226793\H,-1.6105823893,0.4671228422,0.89
 76276834\\Version=EM64L-G16RevA.03\State=2-A\HF=-193.6535688,-193.6533
 906,-193.6529745,-193.6527839,-193.6528654,-193.6527695,-193.6523692,-
 193.6516063,-193.6505031,-193.649119,-193.6475111,-193.6459337,-193.64
 49085,-193.6465003,-193.647888,-193.6492529,-193.6504833,-193.6515105,
 -193.6522851,-193.6527502,-193.6528575,-193.6525787,-193.6532422,-193.
 6524637,-193.6513092,-193.6499011,-193.6483682,-193.6468477,-193.64552
 54,-193.6446839,-193.6461287,-193.6478827,-193.6497759,-193.6514381,-1
 93.6526552,-193.6533552,-193.6535688\S2=0.754582,0.754662,0.754757,0.7
 54795,0.754697,0.754602,0.754506,0.75441,0.754315,0.754231,0.754179,0.
 754218,0.754494,0.754736,0.754747,0.754761,0.754772,0.75477,0.754748,0
 .754713,0.754682,0.754686,0.754576,0.754584,0.754601,0.754613,0.754613
 ,0.754613,0.75466,0.754826,0.754371,0.754295,0.754305,0.754362,0.75443
 4,0.754508,0.754582\S2-1=0.,0.,0.,0.,0.,0.,0.,0.,0.,0.,0.,0.,0.,0.,0.,
 0.,0.,0.,0.,0.,0.,0.,0.,0.,0.,0.,0.,0.,0.,0.,0.,0.,0.,0.,0.,0.,0.\S2A=
 0.750015,0.750016,0.750017,0.750018,0.750016,0.750015,0.750015,0.75001
 4,0.750013,0.750013,0.750013,0.750013,0.750015,0.750017,0.750017,0.750
 017,0.750017,0.750017,0.750017,0.750016,0.750016,0.750017,0.750015,0.7
 50015,0.750015,0.750015,0.750016,0.750016,0.750016,0.750018,0.750015,0
 .750014,0.750014,0.750014,0.750014,0.750015,0.750015\RMSD=2.797e-09,5.
 835e-09,4.636e-09,4.889e-09,4.021e-09,4.349e-09,7.152e-09,7.491e-09,9.
 538e-09,3.903e-09,8.964e-09,6.536e-09,7.102e-09,9.509e-09,7.739e-09,5.
 298e-09,5.512e-09,3.756e-09,2.612e-09,4.779e-09,2.638e-09,4.394e-09,6.
 908e-09,2.900e-09,9.571e-09,7.897e-09,8.221e-09,8.620e-09,6.592e-09,4.
 540e-09,5.126e-09,7.020e-09,6.985e-09,2.776e-09,6.437e-09,5.432e-09,3.
 926e-09\PG=C01 [X(C3H7O1)]\\@


      SCIENCE SANS CONSCIENCE N'EST QUE RUINE DE L'AME.

                                                  -- RABELAIS
 Job cpu time:       0 days 17 hours 59 minutes  7.1 seconds.
 Elapsed time:       0 days  1 hours 11 minutes 54.5 seconds.
 File lengths (MBytes):  RWF=   1328 Int=      0 D2E=      0 Chk=     32 Scr=     32
 Normal termination of Gaussian 16 at Mon Mar 11 20:56:45 2019.
