 Entering Gaussian System, Link 0=g16
 Input=XOBKSJJDNFUZPF-UHFFFAOYSA-N_GeoFreq_a1.com
 Output=XOBKSJJDNFUZPF-UHFFFAOYSA-N_GeoFreq_a1.log
 Initial command:
 /shared/centos7/gaussian/g16/l1.exe "/scratch/underkoffler.c/gaussian_scratch/Gau-15001.inp" -scrdir="/scratch/underkoffler.c/gaussian_scratch/"
 Entering Link 1 = /shared/centos7/gaussian/g16/l1.exe PID=     15002.
  
 Copyright (c) 1988,1990,1992,1993,1995,1998,2003,2009,2016,
            Gaussian, Inc.  All Rights Reserved.
  
 This is part of the Gaussian(R) 16 program.  It is based on
 the Gaussian(R) 09 system (copyright 2009, Gaussian, Inc.),
 the Gaussian(R) 03 system (copyright 2003, Gaussian, Inc.),
 the Gaussian(R) 98 system (copyright 1998, Gaussian, Inc.),
 the Gaussian(R) 94 system (copyright 1995, Gaussian, Inc.),
 the Gaussian 92(TM) system (copyright 1992, Gaussian, Inc.),
 the Gaussian 90(TM) system (copyright 1990, Gaussian, Inc.),
 the Gaussian 88(TM) system (copyright 1988, Gaussian, Inc.),
 the Gaussian 86(TM) system (copyright 1986, Carnegie Mellon
 University), and the Gaussian 82(TM) system (copyright 1983,
 Carnegie Mellon University). Gaussian is a federally registered
 trademark of Gaussian, Inc.
  
 This software contains proprietary and confidential information,
 including trade secrets, belonging to Gaussian, Inc.
  
 This software is provided under written license and may be
 used, copied, transmitted, or stored only in accord with that
 written license.
  
 The following legend is applicable only to US Government
 contracts under FAR:
  
                    RESTRICTED RIGHTS LEGEND
  
 Use, reproduction and disclosure by the US Government is
 subject to restrictions as set forth in subparagraphs (a)
 and (c) of the Commercial Computer Software - Restricted
 Rights clause in FAR 52.227-19.
  
 Gaussian, Inc.
 340 Quinnipiac St., Bldg. 40, Wallingford CT 06492
  
  
 ---------------------------------------------------------------
 Warning -- This program may not be used in any manner that
 competes with the business of Gaussian, Inc. or will provide
 assistance to any competitor of Gaussian, Inc.  The licensee
 of this program is prohibited from giving any competitor of
 Gaussian, Inc. access to this program.  By using this program,
 the user acknowledges that Gaussian, Inc. is engaged in the
 business of creating and licensing software in the field of
 computational chemistry and represents and warrants to the
 licensee that it is not a competitor of Gaussian, Inc. and that
 it will not use this program in any manner prohibited above.
 ---------------------------------------------------------------
  

 Cite this work as:
 Gaussian 16, Revision A.03,
 M. J. Frisch, G. W. Trucks, H. B. Schlegel, G. E. Scuseria, 
 M. A. Robb, J. R. Cheeseman, G. Scalmani, V. Barone, 
 G. A. Petersson, H. Nakatsuji, X. Li, M. Caricato, A. V. Marenich, 
 J. Bloino, B. G. Janesko, R. Gomperts, B. Mennucci, H. P. Hratchian, 
 J. V. Ortiz, A. F. Izmaylov, J. L. Sonnenberg, D. Williams-Young, 
 F. Ding, F. Lipparini, F. Egidi, J. Goings, B. Peng, A. Petrone, 
 T. Henderson, D. Ranasinghe, V. G. Zakrzewski, J. Gao, N. Rega, 
 G. Zheng, W. Liang, M. Hada, M. Ehara, K. Toyota, R. Fukuda, 
 J. Hasegawa, M. Ishida, T. Nakajima, Y. Honda, O. Kitao, H. Nakai, 
 T. Vreven, K. Throssell, J. A. Montgomery, Jr., J. E. Peralta, 
 F. Ogliaro, M. J. Bearpark, J. J. Heyd, E. N. Brothers, K. N. Kudin, 
 V. N. Staroverov, T. A. Keith, R. Kobayashi, J. Normand, 
 K. Raghavachari, A. P. Rendell, J. C. Burant, S. S. Iyengar, 
 J. Tomasi, M. Cossi, J. M. Millam, M. Klene, C. Adamo, R. Cammi, 
 J. W. Ochterski, R. L. Martin, K. Morokuma, O. Farkas, 
 J. B. Foresman, and D. J. Fox, Gaussian, Inc., Wallingford CT, 2016.
 
 ******************************************
 Gaussian 16:  EM64L-G16RevA.03 25-Dec-2016
                10-Mar-2019 
 ******************************************
 %nprocshared=20
 Will use up to   20 processors via shared memory.
 %mem=5GB
 ----------------------------------------------------------------------
 #p m062x/6-311+g(2df,2p) opt=(calcfc,verytight,gdiis,maxcycles=900) fr
 eq iop(7/33=1,2/16=3)
 ----------------------------------------------------------------------

 Warning!  Use of Opt=GDIIS is deprecated since it is seldom a good choice.

 1/6=900,7=1,10=4,18=20,19=11,26=3,38=1/1,3;
 2/9=110,12=2,16=3,17=6,18=5,40=1/2;
 3/5=4,6=6,7=214,11=2,25=1,30=1,71=2,74=-55,140=1/1,2,3;
 4//1;
 5/5=2,38=5/2;
 8/6=4,10=90,11=11/1;
 11/6=1,8=1,9=11,15=111,16=1/1,2,10;
 10/6=1,13=1/2;
 6/7=2,8=2,9=2,10=2,28=1/1;
 7/10=1,18=20,25=1,33=1/1,2,3,16;
 1/6=900,7=1,10=4,18=20,19=11,26=3/3(2);
 2/9=110,16=3/2;
 99//99;
 2/9=110,16=3/2;
 3/5=4,6=6,7=214,11=2,25=1,30=1,71=1,74=-55/1,2,3;
 4/5=5,16=3,69=1/1;
 5/5=2,38=5/2;
 7/33=1/1,2,3,16;
 1/6=900,7=1,18=20,19=11,26=3/3(-5);
 2/9=110,16=3/2;
 6/7=2,8=2,9=2,10=2,19=2,28=1/1;
 99/9=1/99;
 Leave Link    1 at Sun Mar 10 20:00:28 2019, MaxMem=   671088640 cpu:              17.7 elap:               0.9
 (Enter /shared/centos7/gaussian/g16/l101.exe)
 ------------------------------
 Gaussian input prepared by ASE
 ------------------------------
 Symbolic Z-matrix:
 Charge =  0 Multiplicity = 1
 O                     0.895    -0.60551  -0.66438 
 C                    -0.23087  -0.94486   0.21341 
 C                    -1.38644   0.00614   0.07129 
 C                     1.42554   0.698    -0.30517 
 H                    -0.52871  -1.98747  -0.07186 
 H                     0.13149  -0.97344   1.28193 
 H                    -2.10585  -0.10798   0.92019 
 H                    -1.94113  -0.17009  -0.88434 
 H                    -1.01132   1.06485   0.06882 
 H                     0.58423   1.41158  -0.06773 
 H                     2.10945   0.61787   0.58811 
 H                     2.00586   1.07575  -1.18423 
 
 ITRead=  0  0  0  0  0  0  0  0  0  0  0  0
 MicOpt= -1 -1 -1 -1 -1 -1 -1 -1 -1 -1 -1 -1
 NAtoms=     12 NQM=       12 NQMF=       0 NMMI=      0 NMMIF=      0
                NMic=       0 NMicF=      0.
                    Isotopes and Nuclear Properties:
 (Nuclear quadrupole moments (NQMom) in fm**2, nuclear magnetic moments (NMagM)
  in nuclear magnetons)

  Atom         1           2           3           4           5           6           7           8           9          10
 IAtWgt=          16          12          12          12           1           1           1           1           1           1
 AtmWgt=  15.9949146  12.0000000  12.0000000  12.0000000   1.0078250   1.0078250   1.0078250   1.0078250   1.0078250   1.0078250
 NucSpn=           0           0           0           0           1           1           1           1           1           1
 AtZEff=  -0.0000000  -0.0000000  -0.0000000  -0.0000000  -0.0000000  -0.0000000  -0.0000000  -0.0000000  -0.0000000  -0.0000000
 NQMom=    0.0000000   0.0000000   0.0000000   0.0000000   0.0000000   0.0000000   0.0000000   0.0000000   0.0000000   0.0000000
 NMagM=    0.0000000   0.0000000   0.0000000   0.0000000   2.7928460   2.7928460   2.7928460   2.7928460   2.7928460   2.7928460
 AtZNuc=   8.0000000   6.0000000   6.0000000   6.0000000   1.0000000   1.0000000   1.0000000   1.0000000   1.0000000   1.0000000

  Atom        11          12
 IAtWgt=           1           1
 AtmWgt=   1.0078250   1.0078250
 NucSpn=           1           1
 AtZEff=  -0.0000000  -0.0000000
 NQMom=    0.0000000   0.0000000
 NMagM=    2.7928460   2.7928460
 AtZNuc=   1.0000000   1.0000000
 Leave Link  101 at Sun Mar 10 20:00:28 2019, MaxMem=   671088640 cpu:               5.1 elap:               0.3
 (Enter /shared/centos7/gaussian/g16/l103.exe)

 GradGradGradGradGradGradGradGradGradGradGradGradGradGradGradGradGradGrad
 Berny optimization.
 Initialization pass.
                           ----------------------------
                           !    Initial Parameters    !
                           ! (Angstroms and Degrees)  !
 --------------------------                            --------------------------
 ! Name  Definition              Value          Derivative Info.                !
 --------------------------------------------------------------------------------
 ! R1    R(1,2)                  1.4674         calculate D2E/DX2 analytically  !
 ! R2    R(1,4)                  1.4525         calculate D2E/DX2 analytically  !
 ! R3    R(2,3)                  1.5033         calculate D2E/DX2 analytically  !
 ! R4    R(2,5)                  1.1212         calculate D2E/DX2 analytically  !
 ! R5    R(2,6)                  1.1287         calculate D2E/DX2 analytically  !
 ! R6    R(3,7)                  1.1186         calculate D2E/DX2 analytically  !
 ! R7    R(3,8)                  1.1189         calculate D2E/DX2 analytically  !
 ! R8    R(3,9)                  1.1232         calculate D2E/DX2 analytically  !
 ! R9    R(4,10)                 1.1284         calculate D2E/DX2 analytically  !
 ! R10   R(4,11)                 1.1279         calculate D2E/DX2 analytically  !
 ! R11   R(4,12)                 1.119          calculate D2E/DX2 analytically  !
 ! A1    A(2,1,4)              109.8687         calculate D2E/DX2 analytically  !
 ! A2    A(1,2,3)              112.7632         calculate D2E/DX2 analytically  !
 ! A3    A(1,2,5)              105.4662         calculate D2E/DX2 analytically  !
 ! A4    A(1,2,6)              109.0164         calculate D2E/DX2 analytically  !
 ! A5    A(3,2,5)              111.1009         calculate D2E/DX2 analytically  !
 ! A6    A(3,2,6)              110.6289         calculate D2E/DX2 analytically  !
 ! A7    A(5,2,6)              107.6145         calculate D2E/DX2 analytically  !
 ! A8    A(2,3,7)              110.983          calculate D2E/DX2 analytically  !
 ! A9    A(2,3,8)              111.2335         calculate D2E/DX2 analytically  !
 ! A10   A(2,3,9)              109.863          calculate D2E/DX2 analytically  !
 ! A11   A(7,3,8)              108.2558         calculate D2E/DX2 analytically  !
 ! A12   A(7,3,9)              108.2175         calculate D2E/DX2 analytically  !
 ! A13   A(8,3,9)              108.1887         calculate D2E/DX2 analytically  !
 ! A14   A(1,4,10)             110.3177         calculate D2E/DX2 analytically  !
 ! A15   A(1,4,11)             110.7078         calculate D2E/DX2 analytically  !
 ! A16   A(1,4,12)             107.3441         calculate D2E/DX2 analytically  !
 ! A17   A(10,4,11)            109.2905         calculate D2E/DX2 analytically  !
 ! A18   A(10,4,12)            109.7832         calculate D2E/DX2 analytically  !
 ! A19   A(11,4,12)            109.3707         calculate D2E/DX2 analytically  !
 ! D1    D(4,1,2,3)             62.8984         calculate D2E/DX2 analytically  !
 ! D2    D(4,1,2,5)           -175.6894         calculate D2E/DX2 analytically  !
 ! D3    D(4,1,2,6)            -60.3825         calculate D2E/DX2 analytically  !
 ! D4    D(2,1,4,10)           -40.5983         calculate D2E/DX2 analytically  !
 ! D5    D(2,1,4,11)            80.5044         calculate D2E/DX2 analytically  !
 ! D6    D(2,1,4,12)          -160.1854         calculate D2E/DX2 analytically  !
 ! D7    D(1,2,3,7)           -165.2202         calculate D2E/DX2 analytically  !
 ! D8    D(1,2,3,8)             74.1851         calculate D2E/DX2 analytically  !
 ! D9    D(1,2,3,9)            -45.5793         calculate D2E/DX2 analytically  !
 ! D10   D(5,2,3,7)             76.622          calculate D2E/DX2 analytically  !
 ! D11   D(5,2,3,8)            -43.9727         calculate D2E/DX2 analytically  !
 ! D12   D(5,2,3,9)           -163.737          calculate D2E/DX2 analytically  !
 ! D13   D(6,2,3,7)            -42.8402         calculate D2E/DX2 analytically  !
 ! D14   D(6,2,3,8)           -163.4349         calculate D2E/DX2 analytically  !
 ! D15   D(6,2,3,9)             76.8007         calculate D2E/DX2 analytically  !
 --------------------------------------------------------------------------------
 Trust Radius=3.00D-01 FncErr=1.00D-07 GrdErr=1.00D-06 EigMax=2.50D+02 EigMin=1.00D-04
 Number of steps in this run=    100 maximum allowed number of steps=    100.
 GradGradGradGradGradGradGradGradGradGradGradGradGradGradGradGradGradGrad

 Leave Link  103 at Sun Mar 10 20:00:28 2019, MaxMem=   671088640 cpu:               0.3 elap:               0.0
 (Enter /shared/centos7/gaussian/g16/l202.exe)
                          Input orientation:                          
 ---------------------------------------------------------------------
 Center     Atomic      Atomic             Coordinates (Angstroms)
 Number     Number       Type             X           Y           Z
 ---------------------------------------------------------------------
      1          8           0        0.894999   -0.605505   -0.664377
      2          6           0       -0.230875   -0.944864    0.213408
      3          6           0       -1.386439    0.006141    0.071287
      4          6           0        1.425536    0.697998   -0.305169
      5          1           0       -0.528714   -1.987469   -0.071860
      6          1           0        0.131492   -0.973445    1.281927
      7          1           0       -2.105851   -0.107979    0.920187
      8          1           0       -1.941126   -0.170092   -0.884340
      9          1           0       -1.011319    1.064851    0.068821
     10          1           0        0.584234    1.411577   -0.067729
     11          1           0        2.109455    0.617868    0.588113
     12          1           0        2.005860    1.075755   -1.184225
 ---------------------------------------------------------------------
                    Distance matrix (angstroms):
                    1          2          3          4          5
     1  O    0.000000
     2  C    1.467400   0.000000
     3  C    2.473918   1.503308   0.000000
     4  C    1.452453   2.389899   2.920204   0.000000
     5  H    2.070715   1.121210   2.175009   3.329454   0.000000
     6  H    2.122833   1.128654   2.174707   2.643321   1.815724
     7  H    3.429793   2.171509   1.118575   3.823846   2.646508
     8  H    2.877773   2.174921   1.118909   3.524689   2.440880
     9  H    2.638508   2.160777   1.123205   2.492532   3.093438
    10  H    2.126308   2.509234   2.424485   1.128434   3.576617
    11  H    2.130793   2.838957   3.586446   1.127882   3.766070
    12  H    2.081079   3.322538   3.772012   1.119024   4.128530
                    6          7          8          9         10
     6  H    0.000000
     7  H    2.426023   0.000000
     8  H    3.103841   1.813094   0.000000
     9  H    2.632925   1.816138   1.816078   0.000000
    10  H    2.777567   3.243700   3.089656   1.638492   0.000000
    11  H    2.631728   4.290213   4.381347   3.195104   1.840218
    12  H    3.714079   4.768223   4.149791   3.267050   1.838576
                   11         12
    11  H    0.000000
    12  H    1.833460   0.000000
 Stoichiometry    C3H8O
 Framework group  C1[X(C3H8O)]
 Deg. of freedom    30
 Full point group                 C1      NOp   1
 Largest Abelian subgroup         C1      NOp   1
 Largest concise Abelian subgroup C1      NOp   1
                         Standard orientation:                         
 ---------------------------------------------------------------------
 Center     Atomic      Atomic             Coordinates (Angstroms)
 Number     Number       Type             X           Y           Z
 ---------------------------------------------------------------------
      1          8           0        0.689285   -0.641952   -0.368638
      2          6           0       -0.639862   -0.648320    0.253124
      3          6           0       -1.455645    0.562359   -0.105614
      4          6           0        1.455345    0.493083    0.115580
      5          1           0       -1.133549   -1.588668   -0.106221
      6          1           0       -0.521822   -0.730835    1.372551
      7          1           0       -2.336729    0.667824    0.575398
      8          1           0       -1.831286    0.500659   -1.157776
      9          1           0       -0.826450    1.488036   -0.011682
     10          1           0        0.797772    1.407227    0.188391
     11          1           0        1.899195    0.271728    1.128554
     12          1           0        2.279559    0.676916   -0.618650
 ---------------------------------------------------------------------
 Rotational constants (GHZ):          14.3470877           5.4648415           4.5615725
 Leave Link  202 at Sun Mar 10 20:00:28 2019, MaxMem=   671088640 cpu:               0.2 elap:               0.0
 (Enter /shared/centos7/gaussian/g16/l301.exe)
 Standard basis: 6-311+G(2df,2p) (5D, 7F)
 Ernie: Thresh=  0.10000D-02 Tol=  0.10000D-05 Strict=F.
 There are   228 symmetry adapted cartesian basis functions of A   symmetry.
 There are   208 symmetry adapted basis functions of A   symmetry.
   208 basis functions,   296 primitive gaussians,   228 cartesian basis functions
    17 alpha electrons       17 beta electrons
       nuclear repulsion energy       133.6795755172 Hartrees.
 IExCor= 4336 DFT=T Ex+Corr=M062X ExCW=0 ScaHFX=  0.540000
 ScaDFX=  1.000000  1.000000  1.000000  1.000000 ScalE2=  1.000000  1.000000
 IRadAn=      5 IRanWt=     -1 IRanGd=            0 ICorTp=0 IEmpDi=  4
 NAtoms=   12 NActive=   12 NUniq=   12 SFac= 1.00D+00 NAtFMM=   60 NAOKFM=F Big=F
 Integral buffers will be    131072 words long.
 Raffenetti 2 integral format.
 Two-electron integral symmetry is turned on.
 Leave Link  301 at Sun Mar 10 20:00:28 2019, MaxMem=   671088640 cpu:               1.2 elap:               0.1
 (Enter /shared/centos7/gaussian/g16/l302.exe)
 NPDir=0 NMtPBC=     1 NCelOv=     1 NCel=       1 NClECP=     1 NCelD=      1
         NCelK=      1 NCelE2=     1 NClLst=     1 CellRange=     0.0.
 One-electron integrals computed using PRISM.
 One-electron integral symmetry used in STVInt
 NBasis=   208 RedAO= T EigKep=  8.32D-05  NBF=   208
 NBsUse=   208 1.00D-06 EigRej= -1.00D+00 NBFU=   208
 Precomputing XC quadrature grid using
 IXCGrd= 4 IRadAn=           5 IRanWt=          -1 IRanGd=           0 AccXCQ= 0.00D+00.
 Generated NRdTot=       0 NPtTot=           0 NUsed=           0 NTot=          32
 NSgBfM=   228   228   228   228   228 MxSgAt=    12 MxSgA2=    12.
 Leave Link  302 at Sun Mar 10 20:00:29 2019, MaxMem=   671088640 cpu:               9.1 elap:               0.5
 (Enter /shared/centos7/gaussian/g16/l303.exe)
 DipDrv:  MaxL=1.
 Leave Link  303 at Sun Mar 10 20:00:29 2019, MaxMem=   671088640 cpu:               0.7 elap:               0.1
 (Enter /shared/centos7/gaussian/g16/l401.exe)
 ExpMin= 4.38D-02 ExpMax= 8.59D+03 ExpMxC= 1.30D+03 IAcc=3 IRadAn=         5 AccDes= 0.00D+00
 Harris functional with IExCor= 1009 and IRadAn=       5 diagonalized for initial guess.
 HarFok:  IExCor= 1009 AccDes= 0.00D+00 IRadAn=         5 IDoV= 1 UseB2=F ITyADJ=14
 ICtDFT=  3500011 ScaDFX=  1.000000  1.000000  1.000000  1.000000
 FoFCou: FMM=F IPFlag=           0 FMFlag=      100000 FMFlg1=           0
         NFxFlg=           0 DoJE=T BraDBF=F KetDBF=T FulRan=T
         wScrn=  0.000000 ICntrl=       500 IOpCl=  0 I1Cent=   200000004 NGrid=           0
         NMat0=    1 NMatS0=      1 NMatT0=    0 NMatD0=    1 NMtDS0=    0 NMtDT0=    0
 Petite list used in FoFCou.
 Harris En= -194.242606717661    
 JPrj=0 DoOrth=F DoCkMO=F.
 Leave Link  401 at Sun Mar 10 20:00:30 2019, MaxMem=   671088640 cpu:              19.9 elap:               1.0
 (Enter /shared/centos7/gaussian/g16/l502.exe)
 Keep R1 ints in memory in canonical form, NReq=257412536.
 FoFCou: FMM=F IPFlag=           0 FMFlag=           0 FMFlg1=           0
         NFxFlg=           0 DoJE=F BraDBF=F KetDBF=F FulRan=T
         wScrn=  0.000000 ICntrl=       600 IOpCl=  0 I1Cent=           0 NGrid=           0
         NMat0=    1 NMatS0=  21736 NMatT0=    0 NMatD0=    1 NMtDS0=    0 NMtDT0=    0
 Symmetry not used in FoFCou.
 Two-electron integral symmetry not used.
 Closed shell SCF:
 Using DIIS extrapolation, IDIIS=  1040.
 NGot=   671088640 LenX=   434740204 LenY=   434687779
 Requested convergence on RMS density matrix=1.00D-08 within 128 cycles.
 Requested convergence on MAX density matrix=1.00D-06.
 Requested convergence on             energy=1.00D-06.
 No special actions if energy rises.

 Cycle   1  Pass 1  IDiag  1:
 E= -194.167012667514    
 DIIS: error= 2.22D-02 at cycle   1 NSaved=   1.
 NSaved= 1 IEnMin= 1 EnMin= -194.167012667514     IErMin= 1 ErrMin= 2.22D-02
 ErrMax= 2.22D-02  0.00D+00 EMaxC= 1.00D-01 BMatC= 1.59D-01 BMatP= 1.59D-01
 IDIUse=3 WtCom= 7.78D-01 WtEn= 2.22D-01
 Coeff-Com:  0.100D+01
 Coeff-En:   0.100D+01
 Coeff:      0.100D+01
 Gap=     0.365 Goal=   None    Shift=    0.000
 GapD=    0.365 DampG=1.000 DampE=0.500 DampFc=0.5000 IDamp=-1.
 Damping current iteration by 5.00D-01
 RMSDP=2.15D-03 MaxDP=1.07D-01              OVMax= 1.31D-01

 Cycle   2  Pass 1  IDiag  1:
 E= -194.234686411460     Delta-E=       -0.067673743947 Rises=F Damp=T
 DIIS: error= 4.69D-03 at cycle   2 NSaved=   2.
 NSaved= 2 IEnMin= 2 EnMin= -194.234686411460     IErMin= 2 ErrMin= 4.69D-03
 ErrMax= 4.69D-03  0.00D+00 EMaxC= 1.00D-01 BMatC= 1.15D-02 BMatP= 1.59D-01
 IDIUse=3 WtCom= 9.53D-01 WtEn= 4.69D-02
 Coeff-Com: -0.127D+00 0.113D+01
 Coeff-En:   0.000D+00 0.100D+01
 Coeff:     -0.122D+00 0.112D+01
 Gap=     0.366 Goal=   None    Shift=    0.000
 RMSDP=6.97D-04 MaxDP=2.27D-02 DE=-6.77D-02 OVMax= 7.01D-02

 Cycle   3  Pass 1  IDiag  1:
 E= -194.296797839992     Delta-E=       -0.062111428531 Rises=F Damp=F
 DIIS: error= 2.71D-03 at cycle   3 NSaved=   3.
 NSaved= 3 IEnMin= 3 EnMin= -194.296797839992     IErMin= 3 ErrMin= 2.71D-03
 ErrMax= 2.71D-03  0.00D+00 EMaxC= 1.00D-01 BMatC= 2.13D-03 BMatP= 1.15D-02
 IDIUse=3 WtCom= 9.73D-01 WtEn= 2.71D-02
 Coeff-Com: -0.862D-01 0.317D+00 0.769D+00
 Coeff-En:   0.000D+00 0.000D+00 0.100D+01
 Coeff:     -0.839D-01 0.309D+00 0.775D+00
 Gap=     0.343 Goal=   None    Shift=    0.000
 RMSDP=1.56D-04 MaxDP=8.57D-03 DE=-6.21D-02 OVMax= 1.25D-02

 Cycle   4  Pass 1  IDiag  1:
 E= -194.298013510036     Delta-E=       -0.001215670044 Rises=F Damp=F
 DIIS: error= 1.15D-03 at cycle   4 NSaved=   4.
 NSaved= 4 IEnMin= 4 EnMin= -194.298013510036     IErMin= 4 ErrMin= 1.15D-03
 ErrMax= 1.15D-03  0.00D+00 EMaxC= 1.00D-01 BMatC= 6.16D-04 BMatP= 2.13D-03
 IDIUse=3 WtCom= 9.89D-01 WtEn= 1.15D-02
 Coeff-Com: -0.337D-01 0.924D-01 0.398D+00 0.543D+00
 Coeff-En:   0.000D+00 0.000D+00 0.145D+00 0.855D+00
 Coeff:     -0.333D-01 0.913D-01 0.395D+00 0.547D+00
 Gap=     0.349 Goal=   None    Shift=    0.000
 RMSDP=6.60D-05 MaxDP=3.78D-03 DE=-1.22D-03 OVMax= 4.88D-03

 Cycle   5  Pass 1  IDiag  1:
 E= -194.298431895637     Delta-E=       -0.000418385600 Rises=F Damp=F
 DIIS: error= 3.01D-04 at cycle   5 NSaved=   5.
 NSaved= 5 IEnMin= 5 EnMin= -194.298431895637     IErMin= 5 ErrMin= 3.01D-04
 ErrMax= 3.01D-04  0.00D+00 EMaxC= 1.00D-01 BMatC= 2.25D-05 BMatP= 6.16D-04
 IDIUse=3 WtCom= 9.97D-01 WtEn= 3.01D-03
 Coeff-Com: -0.544D-02 0.919D-02 0.916D-01 0.218D+00 0.687D+00
 Coeff-En:   0.000D+00 0.000D+00 0.000D+00 0.000D+00 0.100D+01
 Coeff:     -0.542D-02 0.916D-02 0.914D-01 0.217D+00 0.688D+00
 Gap=     0.348 Goal=   None    Shift=    0.000
 RMSDP=1.58D-05 MaxDP=5.22D-04 DE=-4.18D-04 OVMax= 7.41D-04

 Cycle   6  Pass 1  IDiag  1:
 E= -194.298447874996     Delta-E=       -0.000015979359 Rises=F Damp=F
 DIIS: error= 3.74D-05 at cycle   6 NSaved=   6.
 NSaved= 6 IEnMin= 6 EnMin= -194.298447874996     IErMin= 6 ErrMin= 3.74D-05
 ErrMax= 3.74D-05  0.00D+00 EMaxC= 1.00D-01 BMatC= 4.40D-07 BMatP= 2.25D-05
 IDIUse=1 WtCom= 1.00D+00 WtEn= 0.00D+00
 Coeff-Com:  0.242D-03-0.156D-02 0.709D-02 0.357D-01 0.166D+00 0.793D+00
 Coeff:      0.242D-03-0.156D-02 0.709D-02 0.357D-01 0.166D+00 0.793D+00
 Gap=     0.348 Goal=   None    Shift=    0.000
 RMSDP=3.29D-06 MaxDP=1.37D-04 DE=-1.60D-05 OVMax= 1.77D-04

 Cycle   7  Pass 1  IDiag  1:
 E= -194.298448270254     Delta-E=       -0.000000395258 Rises=F Damp=F
 DIIS: error= 1.74D-05 at cycle   7 NSaved=   7.
 NSaved= 7 IEnMin= 7 EnMin= -194.298448270254     IErMin= 7 ErrMin= 1.74D-05
 ErrMax= 1.74D-05  0.00D+00 EMaxC= 1.00D-01 BMatC= 8.39D-08 BMatP= 4.40D-07
 IDIUse=1 WtCom= 1.00D+00 WtEn= 0.00D+00
 Coeff-Com:  0.782D-03-0.175D-02-0.863D-02-0.121D-01-0.234D-01 0.300D+00
 Coeff-Com:  0.745D+00
 Coeff:      0.782D-03-0.175D-02-0.863D-02-0.121D-01-0.234D-01 0.300D+00
 Coeff:      0.745D+00
 Gap=     0.348 Goal=   None    Shift=    0.000
 RMSDP=1.36D-06 MaxDP=6.59D-05 DE=-3.95D-07 OVMax= 6.09D-05

 Cycle   8  Pass 1  IDiag  1:
 E= -194.298448350096     Delta-E=       -0.000000079842 Rises=F Damp=F
 DIIS: error= 3.24D-06 at cycle   8 NSaved=   8.
 NSaved= 8 IEnMin= 8 EnMin= -194.298448350096     IErMin= 8 ErrMin= 3.24D-06
 ErrMax= 3.24D-06  0.00D+00 EMaxC= 1.00D-01 BMatC= 2.39D-09 BMatP= 8.39D-08
 IDIUse=1 WtCom= 1.00D+00 WtEn= 0.00D+00
 Coeff-Com:  0.162D-03-0.329D-03-0.253D-02-0.475D-02-0.153D-01 0.318D-01
 Coeff-Com:  0.183D+00 0.808D+00
 Coeff:      0.162D-03-0.329D-03-0.253D-02-0.475D-02-0.153D-01 0.318D-01
 Coeff:      0.183D+00 0.808D+00
 Gap=     0.348 Goal=   None    Shift=    0.000
 RMSDP=3.23D-07 MaxDP=7.54D-06 DE=-7.98D-08 OVMax= 1.74D-05

 Cycle   9  Pass 1  IDiag  1:
 E= -194.298448352950     Delta-E=       -0.000000002854 Rises=F Damp=F
 DIIS: error= 7.44D-07 at cycle   9 NSaved=   9.
 NSaved= 9 IEnMin= 9 EnMin= -194.298448352950     IErMin= 9 ErrMin= 7.44D-07
 ErrMax= 7.44D-07  0.00D+00 EMaxC= 1.00D-01 BMatC= 7.72D-11 BMatP= 2.39D-09
 IDIUse=1 WtCom= 1.00D+00 WtEn= 0.00D+00
 Coeff-Com: -0.284D-04 0.619D-04 0.180D-03 0.208D-03 0.307D-03-0.111D-01
 Coeff-Com: -0.242D-01 0.817D-01 0.953D+00
 Coeff:     -0.284D-04 0.619D-04 0.180D-03 0.208D-03 0.307D-03-0.111D-01
 Coeff:     -0.242D-01 0.817D-01 0.953D+00
 Gap=     0.348 Goal=   None    Shift=    0.000
 RMSDP=6.36D-08 MaxDP=1.34D-06 DE=-2.85D-09 OVMax= 4.12D-06

 Cycle  10  Pass 1  IDiag  1:
 E= -194.298448353060     Delta-E=       -0.000000000110 Rises=F Damp=F
 DIIS: error= 1.15D-07 at cycle  10 NSaved=  10.
 NSaved=10 IEnMin=10 EnMin= -194.298448353060     IErMin=10 ErrMin= 1.15D-07
 ErrMax= 1.15D-07  0.00D+00 EMaxC= 1.00D-01 BMatC= 4.80D-12 BMatP= 7.72D-11
 IDIUse=1 WtCom= 1.00D+00 WtEn= 0.00D+00
 Coeff-Com: -0.106D-04 0.227D-04 0.112D-03 0.181D-03 0.555D-03-0.358D-02
 Coeff-Com: -0.114D-01-0.700D-02 0.205D+00 0.816D+00
 Coeff:     -0.106D-04 0.227D-04 0.112D-03 0.181D-03 0.555D-03-0.358D-02
 Coeff:     -0.114D-01-0.700D-02 0.205D+00 0.816D+00
 Gap=     0.348 Goal=   None    Shift=    0.000
 RMSDP=1.41D-08 MaxDP=3.93D-07 DE=-1.10D-10 OVMax= 1.03D-06

 Cycle  11  Pass 1  IDiag  1:
 E= -194.298448353065     Delta-E=       -0.000000000005 Rises=F Damp=F
 DIIS: error= 5.32D-08 at cycle  11 NSaved=  11.
 NSaved=11 IEnMin=11 EnMin= -194.298448353065     IErMin=11 ErrMin= 5.32D-08
 ErrMax= 5.32D-08  0.00D+00 EMaxC= 1.00D-01 BMatC= 9.37D-13 BMatP= 4.80D-12
 IDIUse=1 WtCom= 1.00D+00 WtEn= 0.00D+00
 Coeff-Com:  0.545D-07 0.161D-06 0.147D-04 0.339D-04 0.148D-03 0.253D-04
 Coeff-Com: -0.124D-02-0.106D-01-0.333D-01 0.276D+00 0.768D+00
 Coeff:      0.545D-07 0.161D-06 0.147D-04 0.339D-04 0.148D-03 0.253D-04
 Coeff:     -0.124D-02-0.106D-01-0.333D-01 0.276D+00 0.768D+00
 Gap=     0.348 Goal=   None    Shift=    0.000
 RMSDP=4.82D-09 MaxDP=2.08D-07 DE=-5.23D-12 OVMax= 3.79D-07

 SCF Done:  E(RM062X) =  -194.298448353     A.U. after   11 cycles
            NFock= 11  Conv=0.48D-08     -V/T= 2.0061
 KE= 1.931116614932D+02 PE=-7.203441578314D+02 EE= 1.992544724680D+02
 Leave Link  502 at Sun Mar 10 20:00:50 2019, MaxMem=   671088640 cpu:             326.2 elap:              20.0
 (Enter /shared/centos7/gaussian/g16/l801.exe)
 DoSCS=F DFT=T ScalE2(SS,OS)=  1.000000  1.000000
 Range of M.O.s used for correlation:     1   208
 NBasis=   208 NAE=    17 NBE=    17 NFC=     0 NFV=     0
 NROrb=    208 NOA=    17 NOB=    17 NVA=   191 NVB=   191

 **** Warning!!: The largest alpha MO coefficient is  0.37342897D+02

 Leave Link  801 at Sun Mar 10 20:00:50 2019, MaxMem=   671088640 cpu:               0.5 elap:               0.0
 (Enter /shared/centos7/gaussian/g16/l1101.exe)
 Using compressed storage, NAtomX=    12.
 Will process     13 centers per pass.
 Leave Link 1101 at Sun Mar 10 20:00:50 2019, MaxMem=   671088640 cpu:               7.3 elap:               0.4
 (Enter /shared/centos7/gaussian/g16/l1102.exe)
 Symmetrizing basis deriv contribution to polar:
 IMax=3 JMax=2 DiffMx= 0.00D+00
 Leave Link 1102 at Sun Mar 10 20:00:50 2019, MaxMem=   671088640 cpu:               0.6 elap:               0.1
 (Enter /shared/centos7/gaussian/g16/l1110.exe)
 Forming Gx(P) for the SCF density, NAtomX=    12.
 Integral derivatives from FoFJK, PRISM(SPDF).
 Do as many integral derivatives as possible in FoFJK.
 G2DrvN: MDV=     671087640.
 G2DrvN: will do    13 centers at a time, making    1 passes.
 Calling FoFCou, ICntrl=  3107 FMM=F I1Cent=   0 AccDes= 0.00D+00.
 FoFJK:  IHMeth= 1 ICntrl=    3107 DoSepK=F KAlg= 0 I1Cent=           0 FoldK=F
 IRaf=         0 NMat=       1 IRICut=       1 DoRegI=T DoRafI=F ISym2E= 0 IDoP0=0 IntGTp=1.
 FoFCou: FMM=F IPFlag=           0 FMFlag=      100000 FMFlg1=           0
         NFxFlg=           0 DoJE=F BraDBF=F KetDBF=F FulRan=T
         wScrn=  0.000000 ICntrl=      3107 IOpCl=  0 I1Cent=           0 NGrid=           0
         NMat0=    1 NMatS0=      1 NMatT0=    0 NMatD0=    1 NMtDS0=    0 NMtDT0=    0
 Symmetry not used in FoFCou.
 End of G2Drv F.D. properties file   721 does not exist.
 End of G2Drv F.D. properties file   722 does not exist.
 End of G2Drv F.D. properties file   788 does not exist.
 Leave Link 1110 at Sun Mar 10 20:01:37 2019, MaxMem=   671088640 cpu:             921.7 elap:              46.1
 (Enter /shared/centos7/gaussian/g16/l1002.exe)
 Minotr:  Closed shell wavefunction.
          IDoAtm=111111111111
          Direct CPHF calculation.
          Differentiating once with respect to nuclear coordinates.
          Requested convergence is 1.0D-08 RMS, and 1.0D-07 maximum.
          Secondary convergence is 1.0D-12 RMS, and 1.0D-12 maximum.
          NewPWx=T KeepS1=F KeepF1=F KeepIn=T MapXYZ=F SortEE=F KeepMc=T.
         3640 words used for storage of precomputed grid.
 Keep R1 ints in memory in canonical form, NReq=257354618.
 FoFCou: FMM=F IPFlag=           0 FMFlag=           0 FMFlg1=           0
         NFxFlg=           0 DoJE=F BraDBF=F KetDBF=F FulRan=T
         wScrn=  0.000000 ICntrl=       600 IOpCl=  0 I1Cent=           0 NGrid=           0
         NMat0=    1 NMatS0=  21736 NMatT0=    0 NMatD0=    1 NMtDS0=    0 NMtDT0=    0
 Symmetry not used in FoFCou.
 Two-electron integral symmetry not used.
          MDV=     671088640 using IRadAn=       1.
          Solving linear equations simultaneously, MaxMat=       0.
          There are    39 degrees of freedom in the 1st order CPHF.  IDoFFX=6 NUNeed=     0.
     33 vectors produced by pass  0 Test12= 8.33D-15 2.56D-09 XBig12= 5.44D-02 4.78D-02.
 AX will form    33 AO Fock derivatives at one time.
     33 vectors produced by pass  1 Test12= 8.33D-15 2.56D-09 XBig12= 1.83D-03 8.82D-03.
     33 vectors produced by pass  2 Test12= 8.33D-15 2.56D-09 XBig12= 1.00D-04 1.25D-03.
     33 vectors produced by pass  3 Test12= 8.33D-15 2.56D-09 XBig12= 1.02D-06 1.62D-04.
     33 vectors produced by pass  4 Test12= 8.33D-15 2.56D-09 XBig12= 6.95D-09 1.09D-05.
     33 vectors produced by pass  5 Test12= 8.33D-15 2.56D-09 XBig12= 3.17D-11 6.37D-07.
     13 vectors produced by pass  6 Test12= 8.33D-15 2.56D-09 XBig12= 1.00D-13 4.00D-08.
 InvSVY:  IOpt=1 It=  1 EMax= 2.11D-15
 Solved reduced A of dimension   211 with    33 vectors.
 End of Minotr F.D. properties file   721 does not exist.
 End of Minotr F.D. properties file   722 does not exist.
 End of Minotr F.D. properties file   788 does not exist.
 Leave Link 1002 at Sun Mar 10 20:02:34 2019, MaxMem=   671088640 cpu:            1139.8 elap:              57.0
 (Enter /shared/centos7/gaussian/g16/l601.exe)
 Copying SCF densities to generalized density rwf, IOpCl= 0 IROHF=0.

 **********************************************************************

            Population analysis using the SCF density.

 **********************************************************************

 Orbital symmetries:
       Occupied  (A) (A) (A) (A) (A) (A) (A) (A) (A) (A) (A) (A)
                 (A) (A) (A) (A) (A)
       Virtual   (A) (A) (A) (A) (A) (A) (A) (A) (A) (A) (A) (A)
                 (A) (A) (A) (A) (A) (A) (A) (A) (A) (A) (A) (A)
                 (A) (A) (A) (A) (A) (A) (A) (A) (A) (A) (A) (A)
                 (A) (A) (A) (A) (A) (A) (A) (A) (A) (A) (A) (A)
                 (A) (A) (A) (A) (A) (A) (A) (A) (A) (A) (A) (A)
                 (A) (A) (A) (A) (A) (A) (A) (A) (A) (A) (A) (A)
                 (A) (A) (A) (A) (A) (A) (A) (A) (A) (A) (A) (A)
                 (A) (A) (A) (A) (A) (A) (A) (A) (A) (A) (A) (A)
                 (A) (A) (A) (A) (A) (A) (A) (A) (A) (A) (A) (A)
                 (A) (A) (A) (A) (A) (A) (A) (A) (A) (A) (A) (A)
                 (A) (A) (A) (A) (A) (A) (A) (A) (A) (A) (A) (A)
                 (A) (A) (A) (A) (A) (A) (A) (A) (A) (A) (A) (A)
                 (A) (A) (A) (A) (A) (A) (A) (A) (A) (A) (A) (A)
                 (A) (A) (A) (A) (A) (A) (A) (A) (A) (A) (A) (A)
                 (A) (A) (A) (A) (A) (A) (A) (A) (A) (A) (A) (A)
                 (A) (A) (A) (A) (A) (A) (A) (A) (A) (A) (A)
 The electronic state is 1-A.
 Alpha  occ. eigenvalues --  -19.62481 -10.58895 -10.58349 -10.53620  -1.13189
 Alpha  occ. eigenvalues --   -0.85108  -0.77135  -0.67598  -0.55869  -0.54539
 Alpha  occ. eigenvalues --   -0.51511  -0.47771  -0.44472  -0.43872  -0.41831
 Alpha  occ. eigenvalues --   -0.37665  -0.33166
 Alpha virt. eigenvalues --    0.01660   0.03305   0.03542   0.04500   0.06205
 Alpha virt. eigenvalues --    0.07010   0.07165   0.07844   0.08738   0.10423
 Alpha virt. eigenvalues --    0.11333   0.13419   0.16388   0.17374   0.19546
 Alpha virt. eigenvalues --    0.20141   0.22854   0.23473   0.23682   0.25637
 Alpha virt. eigenvalues --    0.26705   0.27692   0.29091   0.31395   0.32461
 Alpha virt. eigenvalues --    0.33004   0.34450   0.42343   0.43385   0.44018
 Alpha virt. eigenvalues --    0.46024   0.47754   0.49441   0.52393   0.53446
 Alpha virt. eigenvalues --    0.54119   0.54902   0.55797   0.58063   0.59721
 Alpha virt. eigenvalues --    0.60410   0.61279   0.64434   0.65673   0.66156
 Alpha virt. eigenvalues --    0.68501   0.73105   0.79527   0.82858   0.83604
 Alpha virt. eigenvalues --    0.85164   0.88469   0.93249   0.95206   0.97279
 Alpha virt. eigenvalues --    1.00224   1.00549   1.04452   1.07230   1.09686
 Alpha virt. eigenvalues --    1.11708   1.14432   1.15388   1.17357   1.18056
 Alpha virt. eigenvalues --    1.19841   1.22804   1.24752   1.25331   1.26803
 Alpha virt. eigenvalues --    1.28867   1.32791   1.32986   1.35032   1.36129
 Alpha virt. eigenvalues --    1.37868   1.41265   1.41698   1.42726   1.44531
 Alpha virt. eigenvalues --    1.46471   1.48997   1.50690   1.53825   1.55378
 Alpha virt. eigenvalues --    1.58442   1.62735   1.63523   1.71310   1.77782
 Alpha virt. eigenvalues --    2.00648   2.04396   2.08760   2.20288   2.28951
 Alpha virt. eigenvalues --    2.41309   2.43709   2.45917   2.52310   2.56474
 Alpha virt. eigenvalues --    2.59896   2.66089   2.69827   2.82878   2.84851
 Alpha virt. eigenvalues --    2.88190   2.94722   2.97437   3.02709   3.04580
 Alpha virt. eigenvalues --    3.05532   3.08846   3.10771   3.13336   3.14934
 Alpha virt. eigenvalues --    3.16550   3.20796   3.22626   3.23248   3.28313
 Alpha virt. eigenvalues --    3.31200   3.32369   3.38926   3.40197   3.42983
 Alpha virt. eigenvalues --    3.46408   3.50705   3.51011   3.52476   3.60243
 Alpha virt. eigenvalues --    3.63155   3.64563   3.65996   3.70146   3.71708
 Alpha virt. eigenvalues --    3.75987   3.76744   3.80803   3.84117   3.84619
 Alpha virt. eigenvalues --    3.89434   3.92837   3.94712   3.98566   4.03740
 Alpha virt. eigenvalues --    4.04491   4.09646   4.14841   4.15119   4.18570
 Alpha virt. eigenvalues --    4.21836   4.23482   4.23821   4.26426   4.28042
 Alpha virt. eigenvalues --    4.30181   4.36209   4.39908   4.41724   4.45578
 Alpha virt. eigenvalues --    4.50418   4.55334   4.56877   4.60266   4.89457
 Alpha virt. eigenvalues --    5.06022   5.22464   5.22777   5.29275   5.37973
 Alpha virt. eigenvalues --    5.39051   5.41495   5.42822   5.48454   5.49912
 Alpha virt. eigenvalues --    5.50442   5.61499   5.73347   5.75346   6.06859
 Alpha virt. eigenvalues --    6.32929   6.48866   7.16546   7.20851   7.27076
 Alpha virt. eigenvalues --    7.57334   7.71692  24.17122  24.23830  24.36785
 Alpha virt. eigenvalues --   50.13090
          Condensed to atoms (all electrons):
               1          2          3          4          5          6
     1  O    8.182159   0.166452  -0.064265   0.143537  -0.048746  -0.039429
     2  C    0.166452   5.247980   0.141889  -0.122901   0.421026   0.455402
     3  C   -0.064265   0.141889   5.130605  -0.003149  -0.021311  -0.070847
     4  C    0.143537  -0.122901  -0.003149   4.998058   0.006931   0.002071
     5  H   -0.048746   0.421026  -0.021311   0.006931   0.537314  -0.027184
     6  H   -0.039429   0.455402  -0.070847   0.002071  -0.027184   0.546009
     7  H    0.008032  -0.037419   0.415459   0.000187  -0.000923  -0.005175
     8  H   -0.003846  -0.032814   0.416062   0.000792  -0.010378   0.006268
     9  H   -0.009167  -0.035787   0.414112  -0.013811   0.006062  -0.004306
    10  H   -0.030949  -0.000227  -0.017964   0.409156  -0.000527  -0.003022
    11  H   -0.052190  -0.001414   0.003675   0.431036   0.000167   0.003856
    12  H   -0.049061   0.011068  -0.003227   0.424638  -0.000125  -0.000473
               7          8          9         10         11         12
     1  O    0.008032  -0.003846  -0.009167  -0.030949  -0.052190  -0.049061
     2  C   -0.037419  -0.032814  -0.035787  -0.000227  -0.001414   0.011068
     3  C    0.415459   0.416062   0.414112  -0.017964   0.003675  -0.003227
     4  C    0.000187   0.000792  -0.013811   0.409156   0.431036   0.424638
     5  H   -0.000923  -0.010378   0.006062  -0.000527   0.000167  -0.000125
     6  H   -0.005175   0.006268  -0.004306  -0.003022   0.003856  -0.000473
     7  H    0.553583  -0.026742  -0.029799  -0.000350   0.000085   0.000007
     8  H   -0.026742   0.538856  -0.032000   0.001595  -0.000120  -0.000034
     9  H   -0.029799  -0.032000   0.584058  -0.003170   0.000493   0.000918
    10  H   -0.000350   0.001595  -0.003170   0.609619  -0.049501  -0.026838
    11  H    0.000085  -0.000120   0.000493  -0.049501   0.567404  -0.028115
    12  H    0.000007  -0.000034   0.000918  -0.026838  -0.028115   0.537019
 Mulliken charges:
               1
     1  O   -0.202526
     2  C   -0.213255
     3  C   -0.341037
     4  C   -0.276546
     5  H    0.137695
     6  H    0.136829
     7  H    0.123057
     8  H    0.142359
     9  H    0.122397
    10  H    0.112178
    11  H    0.124624
    12  H    0.134224
 Sum of Mulliken charges =  -0.00000
 Mulliken charges with hydrogens summed into heavy atoms:
               1
     1  O   -0.202526
     2  C    0.061269
     3  C    0.046776
     4  C    0.094481
 APT charges:
               1
     1  O   -0.193894
     2  C   -0.688841
     3  C   -1.026374
     4  C   -1.027921
     5  H    0.437413
     6  H    0.337280
     7  H    0.451993
     8  H    0.383772
     9  H    0.232139
    10  H    0.226814
    11  H    0.387335
    12  H    0.480284
 Sum of APT charges =  -0.00000
 APT charges with hydrogens summed into heavy atoms:
               1
     1  O   -0.193894
     2  C    0.085852
     3  C    0.041529
     4  C    0.066513
 Electronic spatial extent (au):  <R**2>=            333.6381
 Charge=             -0.0000 electrons
 Dipole moment (field-independent basis, Debye):
    X=             -0.7237    Y=              1.1314    Z=              0.9463  Tot=              1.6429
 Quadrupole moment (field-independent basis, Debye-Ang):
   XX=            -25.3970   YY=            -27.5375   ZZ=            -27.3828
   XY=              2.2669   XZ=              0.5147   YZ=             -0.7284
 Traceless Quadrupole moment (field-independent basis, Debye-Ang):
   XX=              1.3754   YY=             -0.7650   ZZ=             -0.6104
   XY=              2.2669   XZ=              0.5147   YZ=             -0.7284
 Octapole moment (field-independent basis, Debye-Ang**2):
  XXX=              5.1802  YYY=             -2.2220  ZZZ=             -0.6057  XYY=             -0.9088
  XXY=              0.3041  XXZ=             -0.6703  XZZ=              0.5196  YZZ=             -0.8237
  YYZ=             -0.2917  XYZ=             -1.2926
 Hexadecapole moment (field-independent basis, Debye-Ang**3):
 XXXX=           -275.4469 YYYY=           -110.6560 ZZZZ=            -59.6702 XXXY=              1.7754
 XXXZ=             -5.5842 YYYX=              3.0459 YYYZ=              1.7389 ZZZX=              0.8522
 ZZZY=             -0.7012 XXYY=            -68.5132 XXZZ=            -53.4794 YYZZ=            -30.2056
 XXYZ=             -0.2180 YYXZ=              0.2491 ZZXY=             -0.0701
 N-N= 1.336795755172D+02 E-N=-7.203441549228D+02  KE= 1.931116614932D+02
  Exact polarizability:   0.000   0.000   0.000   0.000   0.000   0.000
 Approx polarizability:  53.464   1.672  49.170  -0.573   0.747  49.573
 No NMR shielding tensors so no spin-rotation constants.
 Leave Link  601 at Sun Mar 10 20:02:34 2019, MaxMem=   671088640 cpu:               5.9 elap:               0.3
 (Enter /shared/centos7/gaussian/g16/l701.exe)
 SCFChk:  SCF convergence  4.82D-09 required  1.00D-08
 ... and contract with generalized density number  0.
 Compute integral second derivatives.
 Entering OneElI...
 Calculate overlap and kinetic energy integrals
    NBasis = 228  MinDer = 2  MaxDer = 2
 Requested accuracy = 0.1000D-12
 PrmmSu-InSpLW:  IPartL=    0 NPrtUS=   20 NPrtUL=    1 DoSpLW=F IThBeg=    0 IThEnd=   19 NThAct=   20.
 PrsmSu:  NPrtUS=  20 ThrOK=T IAlg=1 NPAlg=1 LenDen=           0 ISkipM=0 DoSpLW=F IThBeg=    0 IThEnd=   19.
 Prism:   IPart=     0 DynPar=F LinDyn=F Incr=           1.
 PRISM was handed    33484256 working-precision words and  2628 shell-pairs
 PRISM was handed    33484256 working-precision words and  2628 shell-pairs
 PRISM was handed    33484256 working-precision words and  2628 shell-pairs
 PRISM was handed    33484256 working-precision words and  2628 shell-pairs
 PRISM was handed    33484256 working-precision words and  2628 shell-pairs
 PRISM was handed    33484256 working-precision words and  2628 shell-pairs
 PRISM was handed    33484256 working-precision words and  2628 shell-pairs
 PRISM was handed    33484256 working-precision words and  2628 shell-pairs
 PRISM was handed    33484256 working-precision words and  2628 shell-pairs
 PRISM was handed    33484256 working-precision words and  2628 shell-pairs
 PRISM was handed    33484256 working-precision words and  2628 shell-pairs
 PRISM was handed    33484256 working-precision words and  2628 shell-pairs
 PRISM was handed    33484256 working-precision words and  2628 shell-pairs
 PRISM was handed    33484256 working-precision words and  2628 shell-pairs
 PRISM was handed    33484256 working-precision words and  2628 shell-pairs
 PRISM was handed    33484256 working-precision words and  2628 shell-pairs
 PRISM was handed    33484256 working-precision words and  2628 shell-pairs
 PRISM was handed    33484256 working-precision words and  2628 shell-pairs
 PRISM was handed    33484256 working-precision words and  2628 shell-pairs
 PRISM was handed    33484256 working-precision words and  2628 shell-pairs
 IPart= 19 NShTot=         110 NBatch=          26 AvBLen=         4.2
 IPart= 17 NShTot=         112 NBatch=          26 AvBLen=         4.3
 IPart= 11 NShTot=         127 NBatch=          30 AvBLen=         4.2
 IPart= 15 NShTot=         118 NBatch=          28 AvBLen=         4.2
 IPart=  0 NShTot=         160 NBatch=          50 AvBLen=         3.2
 IPart=  1 NShTot=         157 NBatch=          48 AvBLen=         3.3
 IPart=  2 NShTot=         154 NBatch=          46 AvBLen=         3.3
 IPart=  5 NShTot=         141 NBatch=          38 AvBLen=         3.7
 IPart=  9 NShTot=         131 NBatch=          33 AvBLen=         4.0
 IPart=  6 NShTot=         140 NBatch=          37 AvBLen=         3.8
 IPart=  4 NShTot=         142 NBatch=          39 AvBLen=         3.6
 IPart= 16 NShTot=         113 NBatch=          26 AvBLen=         4.3
 IPart= 14 NShTot=         118 NBatch=          28 AvBLen=         4.2
 IPart=  7 NShTot=         140 NBatch=          37 AvBLen=         3.8
 IPart=  8 NShTot=         134 NBatch=          36 AvBLen=         3.7
 IPart=  3 NShTot=         152 NBatch=          45 AvBLen=         3.4
 IPart= 13 NShTot=         119 NBatch=          29 AvBLen=         4.1
 IPart= 18 NShTot=         110 NBatch=          26 AvBLen=         4.2
 IPart= 10 NShTot=         129 NBatch=          31 AvBLen=         4.2
 IPart= 12 NShTot=         121 NBatch=          30 AvBLen=         4.0
 PrSmSu:  NxtVal=             21.
 Entering OneElI...
 Calculate potential energy integrals
    NBasis = 228  MinDer = 2  MaxDer = 2
 Requested accuracy = 0.1000D-12
 PrmmSu-InSpLW:  IPartL=    0 NPrtUS=   20 NPrtUL=    1 DoSpLW=F IThBeg=    0 IThEnd=   19 NThAct=   20.
 PrsmSu:  NPrtUS=  20 ThrOK=T IAlg=1 NPAlg=1 LenDen=           0 ISkipM=0 DoSpLW=F IThBeg=    0 IThEnd=   19.
 Prism:   IPart=     0 DynPar=F LinDyn=F Incr=          15.
 PRISM was handed    33492209 working-precision words and  2563 shell-pairs
 PRISM was handed    33492209 working-precision words and  2563 shell-pairs
 PRISM was handed    33492209 working-precision words and  2563 shell-pairs
 PRISM was handed    33492209 working-precision words and  2563 shell-pairs
 PRISM was handed    33492209 working-precision words and  2563 shell-pairs
 PRISM was handed    33492209 working-precision words and  2563 shell-pairs
 PRISM was handed    33492209 working-precision words and  2563 shell-pairs
 PRISM was handed    33492209 working-precision words and  2563 shell-pairs
 PRISM was handed    33492209 working-precision words and  2563 shell-pairs
 PRISM was handed    33492209 working-precision words and  2563 shell-pairs
 PRISM was handed    33492209 working-precision words and  2563 shell-pairs
 PRISM was handed    33492209 working-precision words and  2563 shell-pairs
 PRISM was handed    33492209 working-precision words and  2563 shell-pairs
 PRISM was handed    33492209 working-precision words and  2563 shell-pairs
 PRISM was handed    33492209 working-precision words and  2563 shell-pairs
 PRISM was handed    33492209 working-precision words and  2563 shell-pairs
 PRISM was handed    33492209 working-precision words and  2563 shell-pairs
 PRISM was handed    33492209 working-precision words and  2563 shell-pairs
 PRISM was handed    33492209 working-precision words and  2563 shell-pairs
 PRISM was handed    33492209 working-precision words and  2563 shell-pairs
 IPart= 19 NShTot=        1284 NBatch=         107 AvBLen=        12.0
 IPart= 17 NShTot=        1320 NBatch=         110 AvBLen=        12.0
 IPart= 11 NShTot=        1440 NBatch=         120 AvBLen=        12.0
 IPart= 15 NShTot=        1404 NBatch=         117 AvBLen=        12.0
 IPart=  9 NShTot=        1500 NBatch=         125 AvBLen=        12.0
 IPart=  0 NShTot=        1920 NBatch=         160 AvBLen=        12.0
 IPart=  2 NShTot=        1776 NBatch=         148 AvBLen=        12.0
 IPart=  4 NShTot=        1680 NBatch=         140 AvBLen=        12.0
 IPart=  8 NShTot=        1560 NBatch=         130 AvBLen=        12.0
 IPart=  3 NShTot=        1752 NBatch=         146 AvBLen=        12.0
 IPart=  5 NShTot=        1668 NBatch=         139 AvBLen=        12.0
 IPart=  1 NShTot=        1860 NBatch=         155 AvBLen=        12.0
 IPart=  7 NShTot=        1620 NBatch=         135 AvBLen=        12.0
 IPart= 18 NShTot=        1296 NBatch=         108 AvBLen=        12.0
 IPart= 14 NShTot=        1404 NBatch=         117 AvBLen=        12.0
 IPart=  6 NShTot=        1644 NBatch=         137 AvBLen=        12.0
 IPart= 16 NShTot=        1344 NBatch=         112 AvBLen=        12.0
 IPart= 13 NShTot=        1404 NBatch=         117 AvBLen=        12.0
 IPart= 10 NShTot=        1452 NBatch=         121 AvBLen=        12.0
 IPart= 12 NShTot=        1428 NBatch=         119 AvBLen=        12.0
 PrSmSu:  NxtVal=            301.
 Polarizability after L701:
                1             2             3 
      1  0.000000D+00
      2  0.000000D+00  0.000000D+00
      3  0.000000D+00  0.000000D+00  0.000000D+00
 Dipole Derivatives after L701:
                 1             2             3             4             5 
      1  -0.132714D+00  0.205553D+00  0.101087D+00 -0.361611D+00 -0.624695D+00
      2   0.168180D+00 -0.229238D+00 -0.664054D-01 -0.519226D+00 -0.796515D+00
      3  -0.228979D-02 -0.131901D-01 -0.219730D+00  0.447233D-01  0.492435D-01
                 6             7             8             9            10 
      1   0.221581D+00 -0.133250D+01  0.560390D+00 -0.287466D+00 -0.135491D+01
      2   0.148384D+00  0.725108D-01 -0.873048D+00 -0.339520D-01 -0.452611D-01
      3  -0.908397D+00 -0.273862D-01 -0.106154D+00 -0.873578D+00 -0.551222D-02
                11            12            13            14            15 
      1  -0.521758D+00 -0.229327D+00  0.408149D+00  0.391962D+00  0.164372D+00
      2  -0.820717D+00  0.191381D-01  0.338883D+00  0.735425D+00  0.255153D+00
      3   0.590901D-01 -0.908140D+00  0.857026D-02  0.389533D-01  0.168663D+00
                16            17            18            19            20 
      1   0.149663D+00 -0.714469D-02 -0.207526D+00  0.936612D+00 -0.129812D+00
      2  -0.213367D-01  0.157910D+00 -0.312101D+00 -0.228032D+00  0.137603D+00
      3   0.191089D-01 -0.310956D-01  0.704267D+00 -0.219347D+00  0.194341D-01
                21            22            23            24            25 
      1  -0.627260D+00  0.396489D+00  0.410085D-01  0.747093D+00 -0.494984D-01
      2   0.160268D+00 -0.838910D-01  0.136888D+00 -0.185900D+00  0.425394D+00
      3   0.281764D+00  0.183686D+00  0.485734D-01  0.617939D+00  0.106979D-01
                26            27            28            29            30 
      1  -0.256706D+00 -0.819954D-02 -0.267355D-01  0.261500D+00  0.775604D-01
      2   0.630251D+00  0.458534D-01 -0.396968D+00  0.577250D+00  0.607852D-01
      3   0.142913D-02  0.115665D+00 -0.159761D-01  0.544541D-01  0.129928D+00
                31            32            33            34            35 
      1   0.454781D+00 -0.122948D+00  0.736976D+00  0.912267D+00  0.202649D+00
      2   0.531759D-01  0.157248D+00  0.816036D-01  0.236571D+00  0.186943D+00
      3   0.210573D+00 -0.101060D+00  0.549977D+00 -0.206848D+00 -0.196774D-01
                36 
      1  -0.688891D+00
      2  -0.172827D+00
      3   0.341642D+00
 Hessian after L701:
                1             2             3             4             5 
      1  0.310652D+01
      2 -0.246872D+01  0.730830D+01
      3  0.128159D+01 -0.151529D+01  0.987324D+01
      4 -0.125537D+00  0.195879D+00 -0.248698D+01  0.936217D+01
      5  0.137992D+00 -0.577553D+01  0.497033D-01  0.440799D+00  0.130518D+02
      6 -0.243870D+01  0.236485D-01 -0.476571D+01  0.155649D+01  0.298141D+00
      7  0.477252D+00 -0.530872D+00  0.366034D-01 -0.349920D+01 -0.214084D+01
      8 -0.491432D+00  0.561866D-04  0.545196D-02 -0.212055D+01 -0.226540D+01
      9 -0.470975D-01  0.366249D-01 -0.347178D+00  0.582914D+00 -0.645362D+00
     10 -0.373503D+01  0.309830D+01  0.116914D+01  0.302281D+00  0.320671D+00
     11  0.307884D+01 -0.185945D+01  0.175036D+01  0.293996D+00  0.719748D-01
     12  0.115830D+01  0.174169D+01 -0.527013D+01 -0.114559D+00 -0.244368D-01
     13  0.421740D-02  0.892510D-01  0.618432D-01 -0.277251D+01  0.110659D+01
     14  0.134613D+00  0.167890D+00  0.332394D-01  0.109973D+01 -0.165081D+01
     15  0.107024D+00  0.584970D-01  0.538025D-02  0.334068D+00  0.563564D+00
     16 -0.948851D-01  0.326947D-01  0.642012D-01 -0.349596D+01 -0.910009D-02
     17  0.161797D-01  0.275726D-01 -0.474350D-01 -0.141456D-01 -0.344236D+01
     18  0.245940D-01 -0.668206D-01  0.253096D+00  0.955936D-01 -0.279851D+00
     19  0.125120D+00 -0.659429D-01 -0.662880D-01 -0.523987D-03 -0.803378D-02
     20 -0.595016D-01 -0.255181D-01  0.241572D-01  0.842941D-02  0.393469D-01
     21 -0.765494D-01  0.295113D-01 -0.175346D-01 -0.318878D-01 -0.102825D-03
     22  0.567925D-01 -0.523920D-01  0.239163D-01  0.296841D-01  0.186471D-01
     23 -0.341675D-01 -0.998157D-02 -0.852656D-02  0.111028D-01 -0.123622D-01
     24  0.604351D-01 -0.308626D-01 -0.114231D-01  0.544453D-01  0.127742D-01
     25 -0.198869D-01  0.797065D-02  0.153073D-01  0.382499D-01  0.462785D-01
     26 -0.655914D-01  0.414603D-01 -0.823791D-02 -0.581966D-01  0.355746D-01
     27 -0.733115D-03 -0.281401D-02 -0.299518D-01  0.163417D-01  0.326605D-01
     28  0.424611D-01 -0.219320D+00 -0.584436D-01 -0.210041D-02 -0.603308D-02
     29 -0.138581D+00  0.223147D+00 -0.985531D-01  0.548692D-01 -0.878924D-02
     30 -0.237819D-01 -0.705196D-01 -0.388569D-01  0.700045D-03 -0.141256D-02
     31  0.874383D-01 -0.100070D+00  0.954357D-01  0.495325D-01  0.327329D-01
     32 -0.889686D-01 -0.934357D-01 -0.109754D+00  0.208683D-01 -0.203040D-01
     33  0.120762D+00 -0.900023D-01  0.252854D+00  0.553275D-01  0.176969D-01
     34  0.755435D-01  0.132201D-01 -0.136330D+00  0.113905D+00  0.602989D-01
     35 -0.206596D-01 -0.450525D-02 -0.751203D-01  0.672114D-01 -0.231840D-01
     36 -0.165846D+00 -0.113666D+00  0.962151D-01 -0.624537D-01 -0.233742D-01
                6             7             8             9            10 
      6  0.138061D+02
      7  0.564314D+00  0.954084D+01
      8 -0.646001D+00  0.150605D+01  0.100957D+02
      9 -0.488710D+01 -0.342864D+00  0.128066D+00  0.119043D+02
     10 -0.467513D-01  0.197764D+00  0.370215D-01  0.353809D-01  0.102071D+02
     11 -0.430253D-02 -0.111272D+00 -0.206506D+00 -0.443005D-02 -0.248092D+01
     12 -0.160946D+00  0.240099D-01 -0.274203D-02 -0.192184D+00 -0.806343D+00
     13  0.365307D+00  0.281327D-01  0.569726D-01  0.113995D-01  0.697712D-01
     14  0.593676D+00  0.209130D-01 -0.115721D-01  0.248814D-01  0.997404D-01
     15 -0.324767D+01  0.487042D-02  0.391505D-01  0.265542D-01  0.180345D-01
     16  0.985459D-02  0.730000D-01  0.522169D-01 -0.724572D-01  0.238622D-01
     17 -0.334202D+00  0.743162D-01  0.334910D-01  0.117322D+00  0.412729D-01
     18 -0.771226D+00 -0.866953D-01  0.107002D+00  0.302325D-01 -0.743296D-01
     19 -0.731690D-02 -0.152013D+01 -0.206075D+00 -0.113359D+01  0.494574D-01
     20 -0.207288D-01 -0.234834D+00 -0.301102D+01  0.189889D+00 -0.422440D-02
     21  0.295491D-01 -0.108332D+01  0.161424D+00 -0.222565D+01 -0.168294D-01
     22 -0.730561D-02 -0.281654D+01  0.413244D-01  0.875084D+00  0.512673D-01
     23  0.503102D-01  0.206449D-01 -0.313169D+01  0.334449D-02  0.391243D-02
     24  0.581792D-01  0.759726D+00  0.609163D-01 -0.100191D+01  0.472079D-01
     25  0.662772D-02 -0.255426D+01  0.108404D+01  0.781583D-01 -0.408886D-01
     26  0.419897D-01  0.133154D+01 -0.150060D+01  0.149460D+00 -0.632893D-01
     27  0.680264D-03  0.887091D-01  0.143044D+00 -0.327157D+01 -0.584499D-02
     28  0.985217D-03 -0.263879D-01  0.355075D-01 -0.512060D-02 -0.267133D+01
     29  0.113143D-01  0.714870D-01  0.324084D-01  0.505362D-02 -0.135481D+01
     30 -0.297815D-01  0.122833D-02  0.909902D-02 -0.240566D-01 -0.169821D+00
     31  0.405656D-01  0.569853D-01 -0.426653D-02  0.308644D-01 -0.270372D+01
     32  0.505288D-02 -0.101881D-01 -0.237607D-01 -0.540541D-02 -0.124692D+00
     33 -0.228567D-02  0.525735D-01  0.567861D-03 -0.553643D-02  0.971229D+00
     34 -0.440660D-01  0.425318D-01  0.919056D-02 -0.126716D-01 -0.175050D+01
     35 -0.188979D-01  0.305433D-02 -0.111276D-01  0.555328D-03  0.427009D+00
     36 -0.297852D-01 -0.191602D-01 -0.597869D-02 -0.594255D-02 -0.112107D+01
               11            12            13            14            15 
     11  0.967112D+01
     12 -0.133303D+01  0.124626D+02
     13  0.834329D-01  0.113680D-01  0.263176D+01
     14  0.307887D-01  0.675083D-02 -0.136465D+01  0.135122D+01
     15  0.131275D-01 -0.412646D-01 -0.408081D+00 -0.650628D+00  0.331292D+01
     16  0.350688D-01 -0.370559D-01  0.381993D-01 -0.209798D-01 -0.486696D-01
     17 -0.246051D-01 -0.242713D-01 -0.248451D-01  0.296359D-01 -0.754229D-01
     18 -0.354608D-01  0.112721D-01 -0.362785D-01 -0.480445D-01 -0.426454D-01
     19 -0.101967D-01 -0.145124D-01 -0.613959D-02 -0.204322D-01 -0.749580D-02
     20 -0.167580D-01  0.171267D-03 -0.207321D-02  0.131527D-01  0.581296D-02
     21  0.617337D-02 -0.100917D-01  0.198356D-02  0.133058D-01  0.114293D-02
     22 -0.454493D-02  0.293881D-01  0.104899D-01  0.148419D-01 -0.995463D-02
     23 -0.239142D-01  0.271006D-02  0.148376D-01 -0.330946D-01  0.271233D-01
     24 -0.782238D-02 -0.387036D-02 -0.132821D-01  0.153414D-01  0.264179D-02
     25 -0.271746D-01 -0.540454D-02 -0.155779D-01  0.194201D-01  0.235588D-02
     26  0.449290D-01  0.345679D-02  0.273706D-01  0.890633D-01  0.109749D-01
     27  0.100415D-02 -0.187254D-01  0.996543D-04  0.491465D-02 -0.168712D-01
     28 -0.110334D+01 -0.131574D+00 -0.508043D-02 -0.564641D-02 -0.132296D-02
     29 -0.142660D+01  0.218639D+00  0.750939D-02  0.102865D-01  0.424521D-02
     30  0.221387D+00 -0.336384D+01  0.911007D-03  0.141449D-02 -0.830165D-03
     31 -0.160961D+00  0.107413D+01  0.100721D-01  0.118942D-01  0.601955D-02
     32 -0.319349D+01 -0.232799D+00  0.359136D-02  0.507824D-03  0.172648D-02
     33 -0.288107D+00 -0.113637D+01  0.109586D-01  0.117443D-01  0.313851D-02
     34  0.407066D+00 -0.118775D+01  0.666171D-02  0.105491D-01  0.315180D-02
     35 -0.306749D+01 -0.356137D+00  0.200949D-02  0.293997D-02  0.182880D-02
     36 -0.318899D+00 -0.227644D+01 -0.622799D-02 -0.659576D-02 -0.248746D-02
               16            17            18            19            20 
     16  0.343166D+01
     17 -0.100544D+00  0.340169D+01
     18  0.554820D-01  0.374314D+00  0.470949D+00
     19 -0.479900D-02  0.689737D-02  0.832105D-02  0.133285D+01
     20  0.829448D-02 -0.107598D-02 -0.654774D-03  0.348815D+00  0.292331D+01
     21 -0.782226D-02  0.589966D-02 -0.288393D-02  0.113725D+01 -0.222729D+00
     22 -0.252665D-02 -0.159327D-01  0.444043D-01  0.539979D-01  0.559233D-02
     23 -0.943619D-02 -0.777459D-02 -0.308527D-01  0.260618D-03  0.475026D-01
     24  0.307285D-01 -0.322352D-01  0.673011D-01  0.285256D-01 -0.162057D-01
     25  0.529994D-02  0.529784D-02 -0.948699D-02 -0.510206D-01 -0.690151D-01
     26  0.133896D-02 -0.558485D-02 -0.450833D-02 -0.574825D-01  0.352154D-01
     27  0.765695D-04  0.892156D-02 -0.622051D-04  0.533986D-01  0.408250D-01
     28 -0.349277D-02 -0.102694D-01  0.102361D-01  0.677201D-03  0.119689D-02
     29 -0.373751D-02 -0.311509D-02 -0.854327D-02  0.122171D-01 -0.221733D-02
     30  0.277718D-02  0.488847D-02  0.414954D-03 -0.669061D-03 -0.485852D-04
     31  0.283298D-01  0.197536D-01 -0.202419D-01  0.106536D-01 -0.163265D-02
     32  0.133778D-01 -0.725223D-02 -0.275657D-02 -0.178289D-02 -0.805985D-03
     33  0.551310D-02  0.388172D-02 -0.250491D-01  0.871782D-02 -0.130756D-02
     34  0.131052D-02  0.201922D-02 -0.115987D-01  0.985178D-02 -0.104652D-02
     35  0.806019D-03 -0.627779D-03 -0.382400D-02  0.175569D-02 -0.113146D-02
     36 -0.262813D-02 -0.166192D-02  0.860050D-02 -0.634465D-02  0.818428D-03
               21            22            23            24            25 
     21  0.227161D+01
     22  0.576017D-01  0.258213D+01
     23 -0.990347D-02  0.350222D-01  0.315738D+01
     24 -0.859117D-01 -0.943010D+00  0.449181D-01  0.974435D+00
     25  0.275973D-01  0.114968D-01 -0.478190D-01 -0.495717D-01  0.261556D+01
     26  0.220655D-01 -0.603978D-01  0.187282D-01 -0.625452D-01 -0.101183D+01
     27  0.448411D-01 -0.854899D-01 -0.828083D-01 -0.338336D-02 -0.689899D-01
     28  0.431138D-03  0.106060D-01  0.512933D-02  0.853325D-02 -0.501202D-02
     29 -0.524105D-02  0.168304D-01 -0.273216D-02  0.151256D-01 -0.503415D-03
     30 -0.257589D-02  0.126905D-01  0.378836D-02  0.184233D-02  0.302784D-02
     31 -0.289338D-02  0.368877D-02 -0.164022D-03  0.698039D-02  0.459877D-02
     32  0.518121D-03 -0.632939D-03 -0.973647D-03 -0.115363D-02 -0.320302D-02
     33 -0.492537D-02  0.620095D-02  0.118830D-03  0.786611D-02  0.293954D-02
     34 -0.557054D-02  0.891171D-02  0.676814D-03  0.928189D-02  0.114373D-01
     35 -0.921524D-03  0.164188D-02 -0.108989D-02  0.174920D-02 -0.345747D-02
     36  0.243077D-02 -0.352595D-02 -0.222280D-03 -0.577241D-02 -0.256074D-02
               26            27            28            29            30 
     26  0.127849D+01
     27 -0.144210D+00  0.332327D+01
     28 -0.105734D-01  0.232402D-02  0.270069D+01
     29 -0.339946D-01  0.939981D-04  0.115194D+01  0.117331D+01
     30 -0.331912D-02 -0.236444D-01  0.224527D+00 -0.233294D+00  0.341656D+01
     31 -0.154762D-01  0.557842D-02  0.311255D-02  0.138378D+00 -0.117254D+00
     32  0.118379D-02 -0.224068D-02  0.103510D+00  0.142016D-03  0.111035D+00
     33 -0.131347D-01 -0.148138D-02 -0.894848D-01  0.112351D+00  0.358555D-01
     34 -0.174142D-01 -0.547018D-02 -0.441465D-01  0.443988D-01  0.656638D-01
     35 -0.446876D-02  0.609048D-03  0.578970D-01  0.381613D-01 -0.430181D-01
     36  0.800803D-02 -0.310659D-02  0.389096D-01 -0.211909D-01  0.289157D-01
               31            32            33            34            35 
     31  0.238681D+01
     32  0.921950D-01  0.328928D+01
     33 -0.116604D+01  0.203505D+00  0.975573D+00
     34  0.624929D-01 -0.407498D-02  0.213037D-01  0.146201D+01
     35 -0.123841D-01  0.489052D-01  0.426858D-01 -0.524884D+00  0.302362D+01
     36  0.468567D-01  0.322717D-01 -0.996373D-01  0.130405D+01  0.450491D+00
               36 
     36  0.228701D+01
 Leave Link  701 at Sun Mar 10 20:02:34 2019, MaxMem=   671088640 cpu:               9.7 elap:               0.5
 (Enter /shared/centos7/gaussian/g16/l702.exe)
 L702 exits ... SP integral derivatives will be done elsewhere.
 Leave Link  702 at Sun Mar 10 20:02:35 2019, MaxMem=   671088640 cpu:               0.4 elap:               0.0
 (Enter /shared/centos7/gaussian/g16/l703.exe)
 Integral derivatives from FoFJK, PRISM(SPDF).
 Compute integral second derivatives, UseDBF=F ICtDFT=           0.
 ICntrl=    100147.
 Calling FoFJK, ICntrl=    100147 FMM=F ISym2X=0 I1Cent= 0 IOpClX= 0 NMat=1 NMatS=1 NMatT=0.
 FoFJK:  IHMeth= 1 ICntrl=  100147 DoSepK=F KAlg= 0 I1Cent=           0 FoldK=F
 IRaf=         0 NMat=       1 IRICut=       1 DoRegI=T DoRafI=F ISym2E= 0 IDoP0=0 IntGTp=1.
 FoFCou: FMM=F IPFlag=           0 FMFlag=      100000 FMFlg1=         800
         NFxFlg=           0 DoJE=F BraDBF=F KetDBF=F FulRan=T
         wScrn=  0.000000 ICntrl=    100147 IOpCl=  0 I1Cent=           0 NGrid=           0
         NMat0=    1 NMatS0=      1 NMatT0=    0 NMatD0=    1 NMtDS0=    0 NMtDT0=    0
 Symmetry not used in FoFCou.
 FoFCou:  KetSym=F NOpSet=  1 NOpAb=1 NOp=  1.
 FoFCou:  CnvScl= 1.00D+00 Thresh= 1.00D-08 IAcrcy=      12.
 PrismS was handed   670853256 working-precision words and  2604 shell-pairs
 FoFCou: LinMIO=F DoNuc=F BraDBF=F KetDBF=F HaveP=T PDBF=F HaveZ=T HaveW=F
         NIJTC =      15 NIJTAt=       0 NIJTCD=       0 NIJTT =      15
         IJTBeg=       1 IJTEnd=      15 KLTBeg=       1 KLTEnd=      15
         IPTBeg=       1 IPTEnd=      15 IPTBCv=       1 IPTECv=      15
         IZTBeg=       1 IZTEnd=      15 IZTBCv=       1 IZTECv=      15
         IWTBeg=      16 IWTEnd=      15 IWTBCv=      16 IWTECv=      15
         INTBeg=       1 INTEnd=       0 IFTBCv=       1 IFTECv=      15
 NCel replicated for PrismC:     1
 CoulSu-InSpLW:  IPartL=    0 NPrtUS=   20 NPrtUL=    1 DoSpLW=F IThBeg=    0 IThEnd=   19 NThAct=   20.
 CoulSu:  IncDef=  1024 NBBP=        3391710 NTPThr=   100 NPartT=   20 Incr=        1024 LDynOK=F GPUOK=T.
 CoulSu:  NPrtUS=  20 ThrOK=T IAlg=1 NPAlg=1 LenDen=           0 LWGrdD=           0 DoCopy=F ISkipM=0
          DoSpLW=F IThBeg=    0 IThEnd=   19.
 Enter PrismC:  IPart=  0 JobTyp=22 DoJE=F Cont=F.
 PrismC:  IPart=     0 DynPar=T LinDyn=F Incr=        1024 UseFst=F UseS4=T ISplat=2.
 PrismC was handed    33494258 working-precision words and  2604 shell-pairs
 Enter PrismC:  IPart=  9 JobTyp=22 DoJE=F Cont=F.
 Enter PrismC:  IPart= 18 JobTyp=22 DoJE=F Cont=F.
 PrismC:  IPart=     9 DynPar=T LinDyn=F Incr=        1024 UseFst=F UseS4=T ISplat=2.
 Enter PrismC:  IPart= 19 JobTyp=22 DoJE=F Cont=F.
 PrismC was handed    33494258 working-precision words and  2604 shell-pairs
 PrismC:  IPart=    18 DynPar=T LinDyn=F Incr=        1024 UseFst=F UseS4=T ISplat=2.
 PrismC was handed    33494258 working-precision words and  2604 shell-pairs
 PrismC:  IPart=    19 DynPar=T LinDyn=F Incr=        1024 UseFst=F UseS4=T ISplat=2.
 PrismC was handed    33494258 working-precision words and  2604 shell-pairs
 Enter PrismC:  IPart= 16 JobTyp=22 DoJE=F Cont=F.
 PrismC:  IPart=    16 DynPar=T LinDyn=F Incr=        1024 UseFst=F UseS4=T ISplat=2.
 PrismC was handed    33494258 working-precision words and  2604 shell-pairs
 Enter PrismC:  IPart= 10 JobTyp=22 DoJE=F Cont=F.
 Enter PrismC:  IPart= 12 JobTyp=22 DoJE=F Cont=F.
 Enter PrismC:  IPart=  7 JobTyp=22 DoJE=F Cont=F.
 PrismC:  IPart=    10 DynPar=T LinDyn=F Incr=        1024 UseFst=F UseS4=T ISplat=2.
 PrismC was handed    33494258 working-precision words and  2604 shell-pairs
 PrismC:  IPart=    12 DynPar=T LinDyn=F Incr=        1024 UseFst=F UseS4=T ISplat=2.
 PrismC was handed    33494258 working-precision words and  2604 shell-pairs
 Enter PrismC:  IPart= 14 JobTyp=22 DoJE=F Cont=F.
 PrismC:  IPart=     7 DynPar=T LinDyn=F Incr=        1024 UseFst=F UseS4=T ISplat=2.
 PrismC was handed    33494258 working-precision words and  2604 shell-pairs
 PrismC:  IPart=    14 DynPar=T LinDyn=F Incr=        1024 UseFst=F UseS4=T ISplat=2.
 PrismC was handed    33494258 working-precision words and  2604 shell-pairs
 Enter PrismC:  IPart=  3 JobTyp=22 DoJE=F Cont=F.
 PrismC:  IPart=     3 DynPar=T LinDyn=F Incr=        1024 UseFst=F UseS4=T ISplat=2.
 PrismC was handed    33494258 working-precision words and  2604 shell-pairs
 Enter PrismC:  IPart=  1 JobTyp=22 DoJE=F Cont=F.
 Enter PrismC:  IPart=  6 JobTyp=22 DoJE=F Cont=F.
 Enter PrismC:  IPart= 11 JobTyp=22 DoJE=F Cont=F.
 PrismC:  IPart=     6 DynPar=T LinDyn=F Incr=        1024 UseFst=F UseS4=T ISplat=2.
 Enter PrismC:  IPart= 13 JobTyp=22 DoJE=F Cont=F.
 PrismC was handed    33494258 working-precision words and  2604 shell-pairs
 Enter PrismC:  IPart=  5 JobTyp=22 DoJE=F Cont=F.
 Enter PrismC:  IPart=  8 JobTyp=22 DoJE=F Cont=F.
 PrismC:  IPart=     1 DynPar=T LinDyn=F Incr=        1024 UseFst=F UseS4=T ISplat=2.
 PrismC was handed    33494258 working-precision words and  2604 shell-pairs
 PrismC:  IPart=     8 DynPar=T LinDyn=F Incr=        1024 UseFst=F UseS4=T ISplat=2.
 Enter PrismC:  IPart= 17 JobTyp=22 DoJE=F Cont=F.
 PrismC was handed    33494258 working-precision words and  2604 shell-pairs
 PrismC:  IPart=    11 DynPar=T LinDyn=F Incr=        1024 UseFst=F UseS4=T ISplat=2.
 PrismC:  IPart=    17 DynPar=T LinDyn=F Incr=        1024 UseFst=F UseS4=T ISplat=2.
 PrismC was handed    33494258 working-precision words and  2604 shell-pairs
 PrismC was handed    33494258 working-precision words and  2604 shell-pairs
 Enter PrismC:  IPart=  2 JobTyp=22 DoJE=F Cont=F.
 PrismC:  IPart=    13 DynPar=T LinDyn=F Incr=        1024 UseFst=F UseS4=T ISplat=2.
 PrismC:  IPart=     2 DynPar=T LinDyn=F Incr=        1024 UseFst=F UseS4=T ISplat=2.
 Enter PrismC:  IPart=  4 JobTyp=22 DoJE=F Cont=F.
 PrismC:  IPart=     5 DynPar=T LinDyn=F Incr=        1024 UseFst=F UseS4=T ISplat=2.
 PrismC was handed    33494258 working-precision words and  2604 shell-pairs
 PrismC:  IPart=     4 DynPar=T LinDyn=F Incr=        1024 UseFst=F UseS4=T ISplat=2.
 PrismC was handed    33494258 working-precision words and  2604 shell-pairs
 PrismC was handed    33494258 working-precision words and  2604 shell-pairs
 PrismC was handed    33494258 working-precision words and  2604 shell-pairs
 Enter PrismC:  IPart= 15 JobTyp=22 DoJE=F Cont=F.
 PrismC:  IPart=    15 DynPar=T LinDyn=F Incr=        1024 UseFst=F UseS4=T ISplat=2.
 PrismC was handed    33494258 working-precision words and  2604 shell-pairs
 IPart= 19 NShTot=      136400 NShNF=      136400 NShFF=           0 MinMC=       7
           NShCPU=      136400 NBCPU=        6138 AvBCPU=        22.2
           NShGPU=           0 NBGPU=           0 AvBGPU=         0.0
 IPart=  0 NShTot=      115602 NShNF=      115602 NShFF=           0 MinMC=       7
           NShCPU=      115602 NBCPU=        5250 AvBCPU=        22.0
           NShGPU=           0 NBGPU=           0 AvBGPU=         0.0
 IPart= 16 NShTot=      112522 NShNF=      112522 NShFF=           0 MinMC=       7
           NShCPU=      112522 NBCPU=        5023 AvBCPU=        22.4
           NShGPU=           0 NBGPU=           0 AvBGPU=         0.0
 IPart= 10 NShTot=      126575 NShNF=      126575 NShFF=           0 MinMC=       7
           NShCPU=      126575 NBCPU=        5357 AvBCPU=        23.6
           NShGPU=           0 NBGPU=           0 AvBGPU=         0.0
 IPart= 13 NShTot=      130658 NShNF=      130658 NShFF=           0 MinMC=       7
           NShCPU=      130658 NBCPU=        5598 AvBCPU=        23.3
           NShGPU=           0 NBGPU=           0 AvBGPU=         0.0
 IPart=  5 NShTot=      130595 NShNF=      130595 NShFF=           0 MinMC=       7
           NShCPU=      130595 NBCPU=        6194 AvBCPU=        21.1
           NShGPU=           0 NBGPU=           0 AvBGPU=         0.0
 IPart= 17 NShTot=      134469 NShNF=      134469 NShFF=           0 MinMC=       7
           NShCPU=      134469 NBCPU=        6129 AvBCPU=        21.9
           NShGPU=           0 NBGPU=           0 AvBGPU=         0.0
 IPart=  6 NShTot=      112656 NShNF=      112656 NShFF=           0 MinMC=       7
           NShCPU=      112656 NBCPU=        5049 AvBCPU=        22.3
           NShGPU=           0 NBGPU=           0 AvBGPU=         0.0
 IPart=  2 NShTot=      136803 NShNF=      136803 NShFF=           0 MinMC=       7
           NShCPU=      136803 NBCPU=        6192 AvBCPU=        22.1
           NShGPU=           0 NBGPU=           0 AvBGPU=         0.0
 IPart=  9 NShTot=      126304 NShNF=      126304 NShFF=           0 MinMC=       7
           NShCPU=      126304 NBCPU=        5377 AvBCPU=        23.5
           NShGPU=           0 NBGPU=           0 AvBGPU=         0.0
 IPart=  4 NShTot=      135759 NShNF=      135759 NShFF=           0 MinMC=       7
           NShCPU=      135759 NBCPU=        6104 AvBCPU=        22.2
           NShGPU=           0 NBGPU=           0 AvBGPU=         0.0
 IPart= 15 NShTot=      134605 NShNF=      134605 NShFF=           0 MinMC=       7
           NShCPU=      134605 NBCPU=        5547 AvBCPU=        24.3
           NShGPU=           0 NBGPU=           0 AvBGPU=         0.0
 IPart=  8 NShTot=      132835 NShNF=      132835 NShFF=           0 MinMC=       7
           NShCPU=      132835 NBCPU=        5885 AvBCPU=        22.6
           NShGPU=           0 NBGPU=           0 AvBGPU=         0.0
 IPart= 18 NShTot=      130376 NShNF=      130376 NShFF=           0 MinMC=       7
           NShCPU=      130376 NBCPU=        5896 AvBCPU=        22.1
           NShGPU=           0 NBGPU=           0 AvBGPU=         0.0
 IPart=  7 NShTot=      126417 NShNF=      126417 NShFF=           0 MinMC=       7
           NShCPU=      126417 NBCPU=        5711 AvBCPU=        22.1
           NShGPU=           0 NBGPU=           0 AvBGPU=         0.0
 IPart= 14 NShTot=      116491 NShNF=      116491 NShFF=           0 MinMC=       7
           NShCPU=      116491 NBCPU=        5378 AvBCPU=        21.7
           NShGPU=           0 NBGPU=           0 AvBGPU=         0.0
 IPart=  3 NShTot=      119332 NShNF=      119332 NShFF=           0 MinMC=       7
           NShCPU=      119332 NBCPU=        4853 AvBCPU=        24.6
           NShGPU=           0 NBGPU=           0 AvBGPU=         0.0
 IPart= 12 NShTot=      141274 NShNF=      141274 NShFF=           0 MinMC=       7
           NShCPU=      141274 NBCPU=        5672 AvBCPU=        24.9
           NShGPU=           0 NBGPU=           0 AvBGPU=         0.0
 IPart=  1 NShTot=      130703 NShNF=      130703 NShFF=           0 MinMC=       7
           NShCPU=      130703 NBCPU=        6176 AvBCPU=        21.2
           NShGPU=           0 NBGPU=           0 AvBGPU=         0.0
 IPart= 11 NShTot=      120453 NShNF=      120453 NShFF=           0 MinMC=       7
           NShCPU=      120453 NBCPU=        5705 AvBCPU=        21.1
           NShGPU=           0 NBGPU=           0 AvBGPU=         0.0
 CoulSu:  NxtVal=        3577857 LenVP=       33494259 MinMC=       7.
 ReadGW:  IGet=0 IStart=           1 Next=           1 LGW=           0.
 Remaining memory in FofDFT      639.95 Mw
 CkSvGd:  ISavGI=        -1 IRadAn=       5 IRASav=       5 ISavGd=        -1.
 CalDSu-InSpLW:  IPartL=    0 NPrtUS=   20 NPrtUL=    1 DoSpLW=F IThBeg=    0 IThEnd=   19 NThAct=   20.
 CalDSu:  NPrtUS=  20 ThrOK=T IAlg=1 NPAlg=2 DoDPD=T LenP=       26106 LenD1P=             0 GPUOK=F
          ISkipM=0 DoSpLW=F IThBeg=    0 IThEnd=   19.
 IPart=  0 IRanGd=          0 ScrnBf=T ScrnGd=T RCrit=4.00D+00 DoMicB=T.
 IPart=  6        11752 of        13066 points in      13 batches and       68 microbatches, Max-NSigAt=      12 Max-NSgAt2=      12
 IPart=  5        12152 of        13062 points in      13 batches and       50 microbatches, Max-NSigAt=      12 Max-NSgAt2=      12
 IPart= 18        11413 of        13100 points in      15 batches and       76 microbatches, Max-NSigAt=      12 Max-NSgAt2=      12
 IPart= 15        13417 of        15986 points in      18 batches and       92 microbatches, Max-NSigAt=      12 Max-NSgAt2=      12
 IPart= 16        11798 of        13212 points in      13 batches and       76 microbatches, Max-NSigAt=      12 Max-NSgAt2=      12
 IPart=  9        13265 of        15412 points in      16 batches and       73 microbatches, Max-NSigAt=      12 Max-NSgAt2=      12
 IPart=  0        11233 of        11952 points in      12 batches and       57 microbatches, Max-NSigAt=      12 Max-NSgAt2=      12
 IPart= 12        10297 of        11308 points in      12 batches and       74 microbatches, Max-NSigAt=      12 Max-NSgAt2=      12
 IPart=  1        13849 of        16536 points in      18 batches and       80 microbatches, Max-NSigAt=      12 Max-NSgAt2=      12
 IPart=  2        12231 of        13266 points in      13 batches and       89 microbatches, Max-NSigAt=      12 Max-NSgAt2=      12
 IPart=  7        10819 of        11610 points in      11 batches and       66 microbatches, Max-NSigAt=      12 Max-NSgAt2=      12
 IPart=  8        11648 of        12666 points in      12 batches and       72 microbatches, Max-NSigAt=      12 Max-NSgAt2=      12
 IPart= 13        12949 of        14638 points in      14 batches and       70 microbatches, Max-NSigAt=      12 Max-NSgAt2=      12
 IPart= 14        11207 of        12080 points in      12 batches and       69 microbatches, Max-NSigAt=      12 Max-NSgAt2=      12
 IPart= 17        12769 of        14212 points in      14 batches and       65 microbatches, Max-NSigAt=      12 Max-NSgAt2=      12
 IPart=  4        12780 of        13324 points in      12 batches and       59 microbatches, Max-NSigAt=      12 Max-NSgAt2=      12
 IPart=  3        14673 of        18740 points in      22 batches and       98 microbatches, Max-NSigAt=      12 Max-NSgAt2=      12
 IPart= 10        12655 of        13590 points in      12 batches and       65 microbatches, Max-NSigAt=      12 Max-NSgAt2=      12
 IPart= 11        12576 of        14526 points in      15 batches and       67 microbatches, Max-NSigAt=      12 Max-NSgAt2=      12
 IPart= 19        10844 of        11858 points in      12 batches and       70 microbatches, Max-NSigAt=      12 Max-NSgAt2=      12
 Polarizability after L703:
                1             2             3 
      1  0.000000D+00
      2  0.000000D+00  0.000000D+00
      3  0.000000D+00  0.000000D+00  0.000000D+00
 Dipole Derivatives after L703:
                 1             2             3             4             5 
      1  -0.132714D+00  0.205553D+00  0.101087D+00 -0.361611D+00 -0.624695D+00
      2   0.168180D+00 -0.229238D+00 -0.664054D-01 -0.519226D+00 -0.796515D+00
      3  -0.228979D-02 -0.131901D-01 -0.219730D+00  0.447233D-01  0.492435D-01
                 6             7             8             9            10 
      1   0.221581D+00 -0.133250D+01  0.560390D+00 -0.287466D+00 -0.135491D+01
      2   0.148384D+00  0.725108D-01 -0.873048D+00 -0.339520D-01 -0.452611D-01
      3  -0.908397D+00 -0.273862D-01 -0.106154D+00 -0.873578D+00 -0.551222D-02
                11            12            13            14            15 
      1  -0.521758D+00 -0.229327D+00  0.408149D+00  0.391962D+00  0.164372D+00
      2  -0.820717D+00  0.191381D-01  0.338883D+00  0.735425D+00  0.255153D+00
      3   0.590901D-01 -0.908140D+00  0.857026D-02  0.389533D-01  0.168663D+00
                16            17            18            19            20 
      1   0.149663D+00 -0.714469D-02 -0.207526D+00  0.936612D+00 -0.129812D+00
      2  -0.213367D-01  0.157910D+00 -0.312101D+00 -0.228032D+00  0.137603D+00
      3   0.191089D-01 -0.310956D-01  0.704267D+00 -0.219347D+00  0.194341D-01
                21            22            23            24            25 
      1  -0.627260D+00  0.396489D+00  0.410085D-01  0.747093D+00 -0.494984D-01
      2   0.160268D+00 -0.838910D-01  0.136888D+00 -0.185900D+00  0.425394D+00
      3   0.281764D+00  0.183686D+00  0.485734D-01  0.617939D+00  0.106979D-01
                26            27            28            29            30 
      1  -0.256706D+00 -0.819954D-02 -0.267355D-01  0.261500D+00  0.775604D-01
      2   0.630251D+00  0.458534D-01 -0.396968D+00  0.577250D+00  0.607852D-01
      3   0.142913D-02  0.115665D+00 -0.159761D-01  0.544541D-01  0.129928D+00
                31            32            33            34            35 
      1   0.454781D+00 -0.122948D+00  0.736976D+00  0.912267D+00  0.202649D+00
      2   0.531759D-01  0.157248D+00  0.816036D-01  0.236571D+00  0.186943D+00
      3   0.210573D+00 -0.101060D+00  0.549977D+00 -0.206848D+00 -0.196774D-01
                36 
      1  -0.688891D+00
      2  -0.172827D+00
      3   0.341642D+00
 Hessian after L703:
                1             2             3             4             5 
      1  0.328792D+00
      2  0.750128D-01  0.256356D+00
      3 -0.475712D-01  0.801947D-01  0.189955D+00
      4 -0.132193D+00 -0.124732D-01  0.296641D-01  0.419853D+00
      5  0.141380D-01 -0.820485D-01 -0.209425D-01  0.258974D-01  0.560272D+00
      6  0.459868D-01 -0.701399D-02 -0.966154D-01  0.572786D-01  0.142716D-01
      7 -0.329793D-01  0.229848D-01  0.125395D-02 -0.109631D+00  0.562115D-01
      8  0.576430D-02  0.364782D-02 -0.274841D-02  0.585212D-01 -0.179608D+00
      9  0.183249D-01 -0.135544D-01  0.390206D-02 -0.264307D-01  0.392624D-01
     10 -0.106293D+00 -0.220013D-01  0.000000D+00 -0.330263D-01 -0.316410D-01
     11 -0.476754D-01 -0.137321D+00 -0.357828D-01 -0.199934D-01 -0.489415D-02
     12 -0.202051D-01 -0.466096D-01 -0.916227D-01  0.537548D-02  0.139798D-01
     13 -0.239105D-01 -0.273702D-01 -0.806075D-02 -0.862376D-01 -0.689235D-01
     14 -0.264421D-02  0.130851D-02  0.104295D-02 -0.743614D-01 -0.201702D+00
[...]
   A19        1.90132  -0.00000   0.00000  -0.00000  -0.00000   1.90132
    D1        1.20388  -0.00000   0.00000  -0.00001  -0.00001   1.20387
    D2       -2.97477  -0.00000   0.00000  -0.00001  -0.00001  -2.97478
    D3       -0.95460  -0.00000   0.00000  -0.00001  -0.00001  -0.95461
    D4       -1.22026  -0.00000   0.00000  -0.00001  -0.00001  -1.22027
    D5        0.90502  -0.00000   0.00000  -0.00001  -0.00001   0.90501
    D6        2.98165  -0.00000   0.00000  -0.00001  -0.00001   2.98165
    D7        3.02189   0.00000   0.00000  -0.00000  -0.00000   3.02188
    D8        0.93607  -0.00000   0.00000  -0.00000  -0.00000   0.93607
    D9       -1.17381  -0.00000   0.00000  -0.00000  -0.00000  -1.17381
   D10        0.96240  -0.00000   0.00000  -0.00000  -0.00000   0.96240
   D11       -1.12342  -0.00000   0.00000  -0.00000  -0.00000  -1.12342
   D12        3.04989  -0.00000   0.00000  -0.00000  -0.00000   3.04989
   D13       -1.10922   0.00000   0.00000  -0.00000  -0.00000  -1.10922
   D14        3.08815   0.00000   0.00000  -0.00000  -0.00000   3.08815
   D15        0.97827   0.00000   0.00000  -0.00000  -0.00000   0.97827
         Item               Value     Threshold  Converged?
 Maximum Force            0.000000     0.000002     YES
 RMS     Force            0.000000     0.000001     YES
 Maximum Displacement     0.000017     0.000006     NO 
 RMS     Displacement     0.000005     0.000004     NO 
 Predicted change in Energy=-3.049217D-13
                           ----------------------------
                           ! Non-Optimized Parameters !
                           ! (Angstroms and Degrees)  !
 --------------------------                            --------------------------
 ! Name  Definition              Value          Derivative Info.                !
 --------------------------------------------------------------------------------
 ! R1    R(1,2)                  1.4096         -DE/DX =    0.0                 !
 ! R2    R(1,4)                  1.4037         -DE/DX =    0.0                 !
 ! R3    R(2,3)                  1.5205         -DE/DX =    0.0                 !
 ! R4    R(2,5)                  1.0893         -DE/DX =    0.0                 !
 ! R5    R(2,6)                  1.0977         -DE/DX =    0.0                 !
 ! R6    R(3,7)                  1.0898         -DE/DX =    0.0                 !
 ! R7    R(3,8)                  1.0896         -DE/DX =    0.0                 !
 ! R8    R(3,9)                  1.0893         -DE/DX =    0.0                 !
 ! R9    R(4,10)                 1.0937         -DE/DX =    0.0                 !
 ! R10   R(4,11)                 1.0963         -DE/DX =    0.0                 !
 ! R11   R(4,12)                 1.0874         -DE/DX =    0.0                 !
 ! A1    A(2,1,4)              113.8852         -DE/DX =    0.0                 !
 ! A2    A(1,2,3)              113.5131         -DE/DX =    0.0                 !
 ! A3    A(1,2,5)              105.5282         -DE/DX =    0.0                 !
 ! A4    A(1,2,6)              109.548          -DE/DX =    0.0                 !
 ! A5    A(3,2,5)              110.04           -DE/DX =    0.0                 !
 ! A6    A(3,2,6)              110.2188         -DE/DX =    0.0                 !
 ! A7    A(5,2,6)              107.749          -DE/DX =    0.0                 !
 ! A8    A(2,3,7)              109.9122         -DE/DX =    0.0                 !
 ! A9    A(2,3,8)              110.1374         -DE/DX =    0.0                 !
 ! A10   A(2,3,9)              111.9152         -DE/DX =    0.0                 !
 ! A11   A(7,3,8)              108.5144         -DE/DX =    0.0                 !
 ! A12   A(7,3,9)              107.6857         -DE/DX =    0.0                 !
 ! A13   A(8,3,9)              108.5809         -DE/DX =    0.0                 !
 ! A14   A(1,4,10)             112.155          -DE/DX =    0.0                 !
 ! A15   A(1,4,11)             111.0624         -DE/DX =    0.0                 !
 ! A16   A(1,4,12)             107.3363         -DE/DX =    0.0                 !
 ! A17   A(10,4,11)            108.634          -DE/DX =    0.0                 !
 ! A18   A(10,4,12)            108.6381         -DE/DX =    0.0                 !
 ! A19   A(11,4,12)            108.9375         -DE/DX =    0.0                 !
 ! D1    D(4,1,2,3)             68.9769         -DE/DX =    0.0                 !
 ! D2    D(4,1,2,5)           -170.4423         -DE/DX =    0.0                 !
 ! D3    D(4,1,2,6)            -54.6949         -DE/DX =    0.0                 !
 ! D4    D(2,1,4,10)           -69.9161         -DE/DX =    0.0                 !
 ! D5    D(2,1,4,11)            51.8534         -DE/DX =    0.0                 !
 ! D6    D(2,1,4,12)           170.8357         -DE/DX =    0.0                 !
 ! D7    D(1,2,3,7)            173.1412         -DE/DX =    0.0                 !
 ! D8    D(1,2,3,8)             53.6328         -DE/DX =    0.0                 !
 ! D9    D(1,2,3,9)            -67.2542         -DE/DX =    0.0                 !
 ! D10   D(5,2,3,7)             55.1413         -DE/DX =    0.0                 !
 ! D11   D(5,2,3,8)            -64.3672         -DE/DX =    0.0                 !
 ! D12   D(5,2,3,9)            174.7458         -DE/DX =    0.0                 !
 ! D13   D(6,2,3,7)            -63.5537         -DE/DX =    0.0                 !
 ! D14   D(6,2,3,8)            176.9379         -DE/DX =    0.0                 !
 ! D15   D(6,2,3,9)             56.0509         -DE/DX =    0.0                 !
 --------------------------------------------------------------------------------
 GradGradGradGradGradGradGradGradGradGradGradGradGradGradGradGradGradGrad

 Leave Link  103 at Sun Mar 10 20:13:40 2019, MaxMem=   671088640 cpu:               0.3 elap:               0.0
 (Enter /shared/centos7/gaussian/g16/l9999.exe)

 ----------------------------------------------------------------------

 Electric dipole moment (input orientation):
 (Debye = 10**-18 statcoulomb cm , SI units = C m)
                  (au)            (Debye)         (10**-30 SI)
   Tot        0.547269D+00      0.139102D+01      0.463994D+01
   x         -0.188237D+00     -0.478450D+00     -0.159594D+01
   y          0.299813D+00      0.762048D+00      0.254192D+01
   z          0.417352D+00      0.106080D+01      0.353846D+01

 Dipole polarizability, Alpha (input orientation).
 (esu units = cm**3 , SI units = C**2 m**2 J**-1)
 Alpha(0;0):
               (au)            (10**-24 esu)      (10**-40 SI)
   iso        0.428706D+02      0.635276D+01      0.706840D+01
   aniso      0.856891D+01      0.126978D+01      0.141282D+01
   xx         0.468045D+02      0.693571D+01      0.771701D+01
   yx         0.260488D+01      0.386003D+00      0.429486D+00
   yy         0.419997D+02      0.622372D+01      0.692482D+01
   zx        -0.176095D+01     -0.260946D+00     -0.290341D+00
   zy        -0.133447D+01     -0.197749D+00     -0.220025D+00
   zz         0.398075D+02      0.589886D+01      0.656336D+01

 ----------------------------------------------------------------------

 Dipole orientation:
     8          0.87043836          0.04631477         -2.07239908
     6         -0.40033773         -1.67526807         -0.48607808
     6         -2.42956862         -0.45274984          1.14002849
     6          2.42197147          1.76066845         -0.77243560
     1         -1.24850936         -3.06382975         -1.74711107
     1          0.97676100         -2.66436821          0.70915231
     1         -3.49054923         -1.90319761          2.14589507
     1         -3.73707260          0.61335987         -0.04048888
     1         -1.62571811          0.82044546          2.54353543
     1          1.32561946          3.13246362          0.31736665
     1          3.71038954          0.77155761          0.51342950
     1          3.52865207          2.77212052         -2.17771795

 Electric dipole moment (dipole orientation):
 (Debye = 10**-18 statcoulomb cm , SI units = C m)
                  (au)            (Debye)         (10**-30 SI)
   Tot        0.547269D+00      0.139102D+01      0.463994D+01
   x          0.000000D+00      0.000000D+00      0.000000D+00
   y          0.000000D+00      0.000000D+00      0.000000D+00
   z          0.547269D+00      0.139102D+01      0.463994D+01

 Dipole polarizability, Alpha (dipole orientation).
 (esu units = cm**3 , SI units = C**2 m**2 J**-1)
 Alpha(0;0):
               (au)            (10**-24 esu)      (10**-40 SI)
   iso        0.428706D+02      0.635276D+01      0.706840D+01
   aniso      0.856891D+01      0.126978D+01      0.141282D+01
   xx         0.452131D+02      0.669989D+01      0.745464D+01
   yx         0.347082D+01      0.514323D+00      0.572262D+00
   yy         0.432783D+02      0.641318D+01      0.713562D+01
   zx        -0.228596D+01     -0.338745D+00     -0.376904D+00
   zy        -0.770894D+00     -0.114235D+00     -0.127103D+00
   zz         0.401203D+02      0.594521D+01      0.661494D+01

 ----------------------------------------------------------------------

 Test job not archived.
 1\1\GINC-C0046\Freq\RM062X\6-311+G(2df,2p)\C3H8O1\UNDERKOFFLER.C\10-Ma
 r-2019\0\\#P Geom=AllCheck Guess=TCheck SCRF=Check Test GenChk RM062X/
 6-311+G(2df,2p) Freq\\Gaussian input prepared by ASE\\0,1\O,0.80952515
 45,-0.5312133546,-0.6913222288\C,-0.2039297047,-0.899128041,0.21663581
 95\C,-1.4324919709,-0.0057391015,0.1491019011\C,1.4358254311,0.6861472
 775,-0.3813078069\H,-0.4716646622,-1.9223658688,-0.0440939295\H,0.2023
 840215,-0.9090124909,1.2363695964\H,-2.2213901513,-0.4110115529,0.7823
 978777\H,-1.8027710562,0.0461606048,-0.8743523118\H,-1.2190952062,1.00
 56404635,0.4927055422\H,0.7738467985,1.5423788358,-0.5387487676\H,1.78
 18637764,0.6975164458,0.6588640698\H,2.2951484038,0.7854625805,-1.0402
 066853\\Version=EM64L-G16RevA.03\State=1-A\HF=-194.3136774\RMSD=3.378e
 -09\RMSF=2.080e-07\ZeroPoint=0.1092152\Thermal=0.1146923\Dipole=-0.188
 2367,0.2998126,0.4173523\DipoleDeriv=-0.9206908,-0.2790456,0.1547025,-
 0.3237241,-0.7946908,0.0541775,0.1978496,0.0396904,-0.6039443,0.758672
 ,0.111373,-0.1782004,0.036576,0.3510387,-0.0783487,-0.254147,-0.165010
 7,0.5113637,-0.130092,0.0500799,0.0314683,0.1131692,-0.0063944,-0.0092
 254,0.0117962,0.0356894,0.0491876,0.4325887,0.158647,0.0585078,0.26345
 87,0.6415101,-0.0035286,0.1392672,0.0870856,0.3089335,-0.0106064,-0.04
 38401,0.0172808,-0.0454535,-0.1325092,-0.0141025,0.0082927,-0.0536104,
 0.0445068,-0.0675451,0.0112088,-0.1042725,0.0072476,0.038898,-0.020345
 3,-0.0231456,0.0581375,-0.1672792,-0.0498333,-0.0379724,0.0719176,-0.0
 588748,0.0407108,0.05512,0.09028,0.0454937,0.0079093,0.0345383,0.02385
 95,-0.0325346,0.0281327,0.0486579,-0.004455,-0.081422,0.0164819,-0.089
 1192,0.0413776,-0.0418816,-0.0331537,-0.0019588,-0.1068828,-0.0451973,
 -0.0317598,-0.0497997,0.0450769,-0.0433063,0.1254567,-0.0320636,0.0226
 7,-0.1214693,0.0197425,-0.0484816,0.0087001,0.0392823,0.022733,-0.0220
 105,-0.0340419,-0.0224213,-0.0009586,0.0532191,-0.1136522,-0.0452981,-
 0.1530313,-0.0678357,-0.0558748,0.0803899,-0.0188217,0.0420896,-0.0070
 564,0.1051225,0.0224404,0.0071137\Polar=46.8044639,2.6048783,41.999748
 5,-1.7609503,-1.3344746,39.8074515\Quadrupole=0.4864921,0.268385,-0.75
 48771,1.5274114,0.2394472,-0.7972913\PG=C01 [X(C3H8O1)]\NImag=0\\0.317
 48536,0.17069415,0.37413339,-0.11818101,0.03144455,0.27461545,-0.15145
 308,-0.04437006,0.07376571,0.48804490,-0.02444160,-0.09475269,0.001374
 50,0.04268412,0.60173210,0.09241419,0.03145158,-0.15610386,0.04612898,
 0.03421206,0.55755880,-0.03474912,0.01055667,0.01112188,-0.14680715,0.
 05611750,-0.01296556,0.50974087,-0.01246323,0.00975334,0.00059332,0.06
 101209,-0.13598392,0.00635679,0.04548487,0.55111302,0.03130959,-0.0116
 5672,-0.00247801,-0.01809140,0.00899549,-0.08204445,-0.00606551,0.0012
 7048,0.58457031,-0.10694289,-0.06133523,0.00423783,-0.02551243,-0.0337
 1616,-0.00310473,-0.00041401,-0.00092286,0.00011247,0.57898002,-0.0794
 2998,-0.21474835,-0.03245488,-0.01787327,-0.02039964,0.00561272,0.0021
 4270,0.00580779,-0.00120851,-0.02432930,0.51566546,-0.01791959,-0.0614
 1188,-0.09329185,0.01143374,0.02527869,0.00219893,0.00132760,0.0000333
 0,-0.00087712,-0.04017920,-0.02091492,0.58456521,-0.01577662,-0.030117
 24,-0.00167800,-0.06064042,-0.05331463,-0.01752892,0.00580735,0.027935
 36,0.00792563,-0.00216858,-0.00030814,0.00423228,0.07792710,-0.0093443
 3,-0.00994611,0.00147517,-0.05894474,-0.28219201,-0.06360358,-0.002468
 50,-0.01835656,-0.00637147,-0.00000288,0.00214736,0.00231943,0.0670735
 5,0.30698897,0.01414153,0.02753566,0.00335600,-0.02314566,-0.07237633,
 -0.07167642,0.00011167,0.00309711,0.00147284,0.00177426,0.00051491,-0.
 00290390,0.01202844,0.06678789,0.07328277,0.00208659,-0.00582984,0.033
 03033,-0.08978464,-0.00291220,-0.09406493,-0.01056578,0.00047425,-0.02
 603937,0.00310788,0.00341810,0.00390549,-0.00218064,0.00053087,-0.0067
 2643,0.09966271,-0.00191024,0.00008299,0.01189216,-0.00222954,-0.05466
 730,-0.00557819,0.01071018,-0.00015755,0.01909634,0.00211046,0.0016253
 1,0.00374391,-0.01172574,0.00146491,-0.02735643,0.00074494,0.05187608,
 0.00883303,0.00639854,-0.03352470,-0.09080761,-0.00169746,-0.24994092,
 -0.00200928,-0.00097926,0.00023032,-0.00259955,-0.00427762,0.00081361,
 -0.00431363,-0.00100101,-0.00631907,0.09019095,-0.00110914,0.28582968,
 -0.00684096,0.00328657,0.00029086,-0.01537826,-0.01411736,0.01606761,-
 0.18749295,-0.07292191,0.11284960,0.00089146,0.00203627,0.00039399,0.0
 0110861,0.00022388,0.00029883,0.00045081,-0.00028995,-0.00103459,0.202
 61903,0.00627321,-0.00179744,-0.00073767,0.01214717,0.00857926,-0.0130
 0986,-0.07386041,-0.08459878,0.06047788,-0.00015241,-0.00188798,0.0000
 9632,-0.00091804,0.00052133,-0.00041080,-0.00070074,0.00050826,0.00051
 893,0.07928799,0.08961847,0.00033177,0.00006538,0.00141407,-0.00240335
 ,-0.00103263,-0.00027996,0.11350623,0.05975182,-0.13793385,-0.00039030
 ,-0.00056580,0.00012881,0.00017379,-0.00030884,0.00012525,0.00043442,-
 0.00037962,-0.00008626,-0.12519317,-0.06525222,0.14625739,0.00349248,-
 0.00136033,0.00087260,-0.01144181,0.00210424,-0.02828629,-0.07584716,0
 .00242680,-0.08442956,-0.00039450,-0.00038929,-0.00019207,0.00098599,-
 0.00048867,0.00069961,-0.00408704,0.00378718,0.00026386,0.00936494,-0.
 00016689,0.02270200,0.08119641,-0.00218436,0.00105799,-0.00123964,0.00
 687108,-0.00143104,0.02182541,0.00303246,-0.04897799,0.00861805,0.0000
 0327,0.00015926,-0.00004749,-0.00080856,0.00049038,0.00028444,0.003808
 78,-0.00170939,-0.00027105,0.00506888,-0.00149427,0.01123670,-0.006424
 78,0.04951440,-0.00056610,-0.00085870,0.00186826,0.00036324,0.00052951
 ,-0.00203011,-0.08559105,0.00982427,-0.28742040,-0.00015735,0.00027827
 ,-0.00000857,-0.00028929,0.00050243,0.00035963,0.00051730,0.00047027,0
 .00136394,-0.00641780,-0.00001800,-0.01583111,0.09452184,-0.01133532,0
 .31005745,0.00153870,-0.00211311,-0.00048405,0.00835597,0.02852386,0.0
 0917988,-0.05882714,-0.05217229,-0.01882829,-0.00040273,-0.00071564,0.
 00071243,-0.00452905,0.00350034,-0.00019431,0.00127056,-0.00114822,0.0
 0014119,-0.00497426,-0.02158104,-0.00896715,-0.00334061,-0.00958470,-0
 .00216882,0.06314926,0.00065968,0.00163369,-0.00006502,-0.00560470,-0.
 01939049,-0.00521293,-0.05119040,-0.27780737,-0.07975575,-0.00063520,-
 0.00142489,0.00031308,0.00375020,-0.00062575,0.00069909,-0.00001910,0.
 00075993,0.00035575,-0.00213470,-0.01066954,-0.00369284,0.00050447,0.0
 0269558,0.00069564,0.05573320,0.30339145,0.00029350,0.00007770,-0.0001
 5395,0.00113019,0.00336871,0.00018782,-0.01894289,-0.08000113,-0.07611
 165,0.00032286,-0.00108047,0.00041989,-0.00078067,0.00048113,0.0012204
 3,0.00071619,0.00037409,0.00018668,0.00301102,0.01845183,0.00633152,-0
 .00614373,-0.02908980,-0.00819808,0.02011966,0.08656240,0.07665493,0.0
 1492775,-0.01827326,0.00295783,0.00220955,-0.00071750,0.00014196,-0.00
 073452,0.00131277,0.00050593,-0.15724325,0.12424948,-0.02564224,-0.000
 14779,0.00010620,0.00012392,-0.00031348,-0.00013363,0.00004595,0.00042
 010,-0.00035449,-0.00028016,-0.00013930,0.00015962,-0.00022577,-0.0021
 9067,-0.00117731,0.00053959,0.16367704,0.00538822,-0.04064873,-0.00034
 615,0.00509948,0.00070143,-0.00312665,-0.00031220,0.00005875,-0.000069
 00,0.11968088,-0.18882173,0.03131603,-0.00057451,-0.00002171,0.0002684
 1,-0.00041792,-0.00018820,0.00056388,-0.00012399,0.00058634,0.00006945
 ,-0.00011000,-0.00011980,-0.00004384,-0.00042066,0.00091376,0.00050495
 ,-0.13029456,0.22277066,0.00558559,-0.01038504,0.00393887,-0.00053527,
 0.00078390,-0.00000208,0.00007962,0.00029281,0.00044702,-0.02579126,0.
 03173796,-0.05959110,0.00011922,-0.00009926,0.00010656,-0.00042718,-0.
 00017140,0.00000419,-0.00014914,-0.00020548,-0.00016650,-0.00015880,-0
 .00004042,-0.00018059,0.00088304,0.00006934,-0.00026904,0.02784941,-0.
 02984913,0.05570457,-0.00865510,-0.01183246,-0.01520014,0.00178558,0.0
 0110477,-0.00486749,-0.00026340,-0.00017373,0.00039961,-0.07425226,0.0
 0457124,-0.06788387,0.00012688,0.00006626,0.00032059,0.00026338,0.0000
 6474,0.00099350,-0.00009222,0.00008070,0.00008633,0.00021324,0.0000617
 6,0.00005427,-0.00008106,0.00024454,-0.00010174,-0.00538262,0.00215527
 ,-0.02070323,0.07618176,-0.02010808,-0.01277050,-0.03409814,0.00262995
 ,0.00219918,-0.00541813,-0.00028290,-0.00019949,0.00071320,0.00459585,
 -0.05063594,0.01380824,0.00030915,0.00005861,0.00012293,0.00071317,0.0
 0039955,0.00146224,-0.00021586,0.00017925,0.00001381,0.00012527,-0.000
 21682,-0.00004865,-0.00000695,-0.00006035,0.00008525,0.00661095,0.0013
 5628,0.02353917,0.00413816,0.05924219,-0.00750768,-0.01150184,-0.00693
 593,0.00316646,0.00140428,0.00198417,-0.00041944,-0.00014532,-0.000103
 99,-0.06973378,0.00911088,-0.27477199,0.00006725,-0.00007961,0.0005571
 9,-0.00156939,-0.00079251,0.00085758,-0.00010572,0.00003838,0.00004008
 ,0.00009497,0.00003902,0.00001325,-0.00029453,-0.00000476,-0.00018875,
 -0.00044862,0.00119644,-0.00433126,0.08307813,-0.00115751,0.29970139,-
 0.01511312,-0.00930585,0.00926615,0.00062180,-0.00131504,-0.00311470,0
 .00015300,0.00000787,0.00035129,-0.21564872,-0.01337215,0.12981142,-0.
 00051282,-0.00025198,0.00056755,0.00008964,0.00001981,0.00029619,-0.00
 007631,-0.00005505,-0.00000040,-0.00000265,-0.00000345,-0.00004048,0.0
 0003103,-0.00013066,-0.00016397,-0.01508281,-0.00007001,0.01324799,0.0
 1015583,0.00149129,-0.00632766,0.23538511,-0.03313343,-0.01199759,0.02
 216178,-0.00142159,-0.00439487,-0.00350919,0.00007003,-0.00065123,-0.0
 0010999,-0.00529643,-0.04748663,0.00546530,-0.00130139,-0.00052942,0.0
 0083312,0.00018968,0.00000541,0.00003621,-0.00009981,0.00045512,0.0000
 9477,-0.00000797,0.00003168,0.00000412,-0.00001478,0.00058397,0.000265
 34,0.01851173,0.00341296,-0.01567245,-0.00048125,0.00044805,0.00189256
 ,0.02298522,0.06012256,-0.00873482,-0.00115925,0.00729564,-0.00100504,
 -0.00084072,0.00014808,-0.00015327,-0.00009417,0.00024898,0.13550874,0
 .01324746,-0.15668193,0.00004390,-0.00010228,0.00041874,0.00003263,-0.
 00018948,0.00058496,-0.00001149,0.00005070,0.00000057,0.00005556,0.000
 02011,0.00000633,-0.00009905,0.00003601,-0.00007980,-0.00556781,-0.000
 48440,0.00433937,0.02382403,0.00097759,-0.01682175,-0.14389339,-0.0114
 6156,0.16054081\\0.00000013,0.00000024,-0.00000005,0.,-0.00000009,-0.0
 0000009,0.,-0.00000020,-0.00000013,0.,0.00000031,0.00000025,0.00000023
 ,-0.00000006,-0.00000041,0.,-0.00000020,-0.00000018,0.,-0.00000039,-0.
 00000029,0.00000007,-0.00000005,-0.00000016,-0.00000015,-0.00000023,0.
 00000007,-0.00000013,0.00000016,0.00000036,-0.00000014,0.00000007,0.00
 000028,0.,0.00000045,0.00000034\\\@


 PERICLES, SOPHOCLES,
 PELOPONESIAN WAR,
 FRENCH VERBS, LATIN VERBS
 H2SO4.
 Job cpu time:       0 days  1 hours  0 minutes 35.4 seconds.
 Elapsed time:       0 days  0 hours  3 minutes  2.7 seconds.
 File lengths (MBytes):  RWF=   1312 Int=      0 D2E=      0 Chk=     32 Scr=     32
 Normal termination of Gaussian 16 at Sun Mar 10 20:13:40 2019.
