 Entering Gaussian System, Link 0=g16
 Input=XOBKSJJDNFUZPF-UHFFFAOYSA-N_36by10.0_tor01_a1.com
 Output=XOBKSJJDNFUZPF-UHFFFAOYSA-N_36by10.0_tor01_a1.log
 Initial command:
 /shared/centos7/gaussian/g16/l1.exe "/scratch/underkoffler.c/gaussian_scratch/Gau-43497.inp" -scrdir="/scratch/underkoffler.c/gaussian_scratch/"
 Entering Link 1 = /shared/centos7/gaussian/g16/l1.exe PID=     43498.
  
 Copyright (c) 1988,1990,1992,1993,1995,1998,2003,2009,2016,
            Gaussian, Inc.  All Rights Reserved.
  
 This is part of the Gaussian(R) 16 program.  It is based on
 the Gaussian(R) 09 system (copyright 2009, Gaussian, Inc.),
 the Gaussian(R) 03 system (copyright 2003, Gaussian, Inc.),
 the Gaussian(R) 98 system (copyright 1998, Gaussian, Inc.),
 the Gaussian(R) 94 system (copyright 1995, Gaussian, Inc.),
 the Gaussian 92(TM) system (copyright 1992, Gaussian, Inc.),
 the Gaussian 90(TM) system (copyright 1990, Gaussian, Inc.),
 the Gaussian 88(TM) system (copyright 1988, Gaussian, Inc.),
 the Gaussian 86(TM) system (copyright 1986, Carnegie Mellon
 University), and the Gaussian 82(TM) system (copyright 1983,
 Carnegie Mellon University). Gaussian is a federally registered
 trademark of Gaussian, Inc.
  
 This software contains proprietary and confidential information,
 including trade secrets, belonging to Gaussian, Inc.
  
 This software is provided under written license and may be
 used, copied, transmitted, or stored only in accord with that
 written license.
  
 The following legend is applicable only to US Government
 contracts under FAR:
  
                    RESTRICTED RIGHTS LEGEND
  
 Use, reproduction and disclosure by the US Government is
 subject to restrictions as set forth in subparagraphs (a)
 and (c) of the Commercial Computer Software - Restricted
 Rights clause in FAR 52.227-19.
  
 Gaussian, Inc.
 340 Quinnipiac St., Bldg. 40, Wallingford CT 06492
  
  
 ---------------------------------------------------------------
 Warning -- This program may not be used in any manner that
 competes with the business of Gaussian, Inc. or will provide
 assistance to any competitor of Gaussian, Inc.  The licensee
 of this program is prohibited from giving any competitor of
 Gaussian, Inc. access to this program.  By using this program,
 the user acknowledges that Gaussian, Inc. is engaged in the
 business of creating and licensing software in the field of
 computational chemistry and represents and warrants to the
 licensee that it is not a competitor of Gaussian, Inc. and that
 it will not use this program in any manner prohibited above.
 ---------------------------------------------------------------
  

 Cite this work as:
 Gaussian 16, Revision A.03,
 M. J. Frisch, G. W. Trucks, H. B. Schlegel, G. E. Scuseria, 
 M. A. Robb, J. R. Cheeseman, G. Scalmani, V. Barone, 
 G. A. Petersson, H. Nakatsuji, X. Li, M. Caricato, A. V. Marenich, 
 J. Bloino, B. G. Janesko, R. Gomperts, B. Mennucci, H. P. Hratchian, 
 J. V. Ortiz, A. F. Izmaylov, J. L. Sonnenberg, D. Williams-Young, 
 F. Ding, F. Lipparini, F. Egidi, J. Goings, B. Peng, A. Petrone, 
 T. Henderson, D. Ranasinghe, V. G. Zakrzewski, J. Gao, N. Rega, 
 G. Zheng, W. Liang, M. Hada, M. Ehara, K. Toyota, R. Fukuda, 
 J. Hasegawa, M. Ishida, T. Nakajima, Y. Honda, O. Kitao, H. Nakai, 
 T. Vreven, K. Throssell, J. A. Montgomery, Jr., J. E. Peralta, 
 F. Ogliaro, M. J. Bearpark, J. J. Heyd, E. N. Brothers, K. N. Kudin, 
 V. N. Staroverov, T. A. Keith, R. Kobayashi, J. Normand, 
 K. Raghavachari, A. P. Rendell, J. C. Burant, S. S. Iyengar, 
 J. Tomasi, M. Cossi, J. M. Millam, M. Klene, C. Adamo, R. Cammi, 
 J. W. Ochterski, R. L. Martin, K. Morokuma, O. Farkas, 
 J. B. Foresman, and D. J. Fox, Gaussian, Inc., Wallingford CT, 2016.
 
 ******************************************
 Gaussian 16:  EM64L-G16RevA.03 25-Dec-2016
                11-Mar-2019 
 ******************************************
 %nprocshared=20
 Will use up to   20 processors via shared memory.
 %mem=5GB
 ----------------------------------------------
 #p m062x/6-311+g(2df,2p) Opt=(CalcFC,ModRedun)
 ----------------------------------------------
 1/10=4,18=120,19=15,26=3,38=1/1,3;
 2/9=110,12=2,17=6,18=5,40=1/2;
 3/5=4,6=6,7=214,11=2,25=1,30=1,71=2,74=-55,140=1/1,2,3;
 4//1;
 5/5=2,38=5/2;
 8/6=4,10=90,11=11/1;
 11/6=1,8=1,9=11,15=111,16=1/1,2,10;
 10/6=1,13=1/2;
 6/7=2,8=2,9=2,10=2,28=1/1;
 7/10=1,18=20,25=1/1,2,3,16;
 1/10=4,18=20,19=15,26=3/3(2);
 2/9=110/2;
 99//99;
 2/9=110/2;
 3/5=4,6=6,7=214,11=2,25=1,30=1,71=1,74=-55/1,2,3;
 4/5=5,16=3,69=1/1;
 5/5=2,38=5/2;
 7//1,2,3,16;
 1/18=20,19=15,26=3/3(-5);
 2/9=110/2;
 6/7=2,8=2,9=2,10=2,19=2,28=1/1;
 99/9=1/99;
 Leave Link    1 at Mon Mar 11 00:05:10 2019, MaxMem=   671088640 cpu:              31.9 elap:               1.7
 (Enter /shared/centos7/gaussian/g16/l101.exe)
 ----------------------------------------
 Gaussian Input Prepared from Scan Object
 ----------------------------------------
 Symbolic Z-matrix:
 Charge =  0 Multiplicity = 1
 O                     0.80953  -0.53121  -0.69132 
 C                    -0.20393  -0.89913   0.21664 
 C                    -1.43249  -0.00574   0.1491 
 C                     1.43583   0.68615  -0.38131 
 H                    -0.47166  -1.92237  -0.04409 
 H                     0.20238  -0.90901   1.23637 
 H                    -2.22139  -0.41101   0.7824 
 H                    -1.80277   0.04616  -0.87435 
 H                    -1.2191    1.00564   0.49271 
 H                     0.77385   1.54238  -0.53875 
 H                     1.78186   0.69752   0.65886 
 H                     2.29515   0.78546  -1.04021 
 
 The following ModRedundant input section has been read:
 B       4      12 B                                                           
 B       1       4 B                                                           
 B       2       3 B                                                           
 B       1       2 B                                                           
 B       4      11 B                                                           
 B       3       8 B                                                           
 B       4      10 B                                                           
 B       3       7 B                                                           
 B       2       5 B                                                           
 B       2       6 B                                                           
 B       3       9 B                                                           
 D       4       1       2       6 S  36 10.000                                
 
 ITRead=  0  0  0  0  0  0  0  0  0  0  0  0
 MicOpt= -1 -1 -1 -1 -1 -1 -1 -1 -1 -1 -1 -1
 NAtoms=     12 NQM=       12 NQMF=       0 NMMI=      0 NMMIF=      0
                NMic=       0 NMicF=      0.
                    Isotopes and Nuclear Properties:
 (Nuclear quadrupole moments (NQMom) in fm**2, nuclear magnetic moments (NMagM)
  in nuclear magnetons)

  Atom         1           2           3           4           5           6           7           8           9          10
 IAtWgt=          16          12          12          12           1           1           1           1           1           1
 AtmWgt=  15.9949146  12.0000000  12.0000000  12.0000000   1.0078250   1.0078250   1.0078250   1.0078250   1.0078250   1.0078250
 NucSpn=           0           0           0           0           1           1           1           1           1           1
 AtZEff=  -0.0000000  -0.0000000  -0.0000000  -0.0000000  -0.0000000  -0.0000000  -0.0000000  -0.0000000  -0.0000000  -0.0000000
 NQMom=    0.0000000   0.0000000   0.0000000   0.0000000   0.0000000   0.0000000   0.0000000   0.0000000   0.0000000   0.0000000
 NMagM=    0.0000000   0.0000000   0.0000000   0.0000000   2.7928460   2.7928460   2.7928460   2.7928460   2.7928460   2.7928460
 AtZNuc=   8.0000000   6.0000000   6.0000000   6.0000000   1.0000000   1.0000000   1.0000000   1.0000000   1.0000000   1.0000000

  Atom        11          12
 IAtWgt=           1           1
 AtmWgt=   1.0078250   1.0078250
 NucSpn=           1           1
 AtZEff=  -0.0000000  -0.0000000
 NQMom=    0.0000000   0.0000000
 NMagM=    2.7928460   2.7928460
 AtZNuc=   1.0000000   1.0000000
 Leave Link  101 at Mon Mar 11 00:05:10 2019, MaxMem=   671088640 cpu:               5.8 elap:               0.3
 (Enter /shared/centos7/gaussian/g16/l103.exe)

 GradGradGradGradGradGradGradGradGradGradGradGradGradGradGradGradGradGrad
 Berny optimization.
 Initialization pass.
                           ----------------------------
                           !    Initial Parameters    !
                           ! (Angstroms and Degrees)  !
 --------------------------                            --------------------------
 ! Name  Definition              Value          Derivative Info.                !
 --------------------------------------------------------------------------------
 ! R1    R(1,2)                  1.4096         calculate D2E/DX2 analytically  !
 ! R2    R(1,4)                  1.4037         calculate D2E/DX2 analytically  !
 ! R3    R(2,3)                  1.5205         calculate D2E/DX2 analytically  !
 ! R4    R(2,5)                  1.0893         calculate D2E/DX2 analytically  !
 ! R5    R(2,6)                  1.0977         calculate D2E/DX2 analytically  !
 ! R6    R(3,7)                  1.0898         calculate D2E/DX2 analytically  !
 ! R7    R(3,8)                  1.0896         calculate D2E/DX2 analytically  !
 ! R8    R(3,9)                  1.0893         calculate D2E/DX2 analytically  !
 ! R9    R(4,10)                 1.0937         calculate D2E/DX2 analytically  !
 ! R10   R(4,11)                 1.0963         calculate D2E/DX2 analytically  !
 ! R11   R(4,12)                 1.0874         calculate D2E/DX2 analytically  !
 ! A1    A(2,1,4)              113.8852         calculate D2E/DX2 analytically  !
 ! A2    A(1,2,3)              113.513          calculate D2E/DX2 analytically  !
 ! A3    A(1,2,5)              105.5282         calculate D2E/DX2 analytically  !
 ! A4    A(1,2,6)              109.548          calculate D2E/DX2 analytically  !
 ! A5    A(3,2,5)              110.0401         calculate D2E/DX2 analytically  !
 ! A6    A(3,2,6)              110.2189         calculate D2E/DX2 analytically  !
 ! A7    A(5,2,6)              107.749          calculate D2E/DX2 analytically  !
 ! A8    A(2,3,7)              109.9123         calculate D2E/DX2 analytically  !
 ! A9    A(2,3,8)              110.1374         calculate D2E/DX2 analytically  !
 ! A10   A(2,3,9)              111.9152         calculate D2E/DX2 analytically  !
 ! A11   A(7,3,8)              108.5144         calculate D2E/DX2 analytically  !
 ! A12   A(7,3,9)              107.6857         calculate D2E/DX2 analytically  !
 ! A13   A(8,3,9)              108.5808         calculate D2E/DX2 analytically  !
 ! A14   A(1,4,10)             112.155          calculate D2E/DX2 analytically  !
 ! A15   A(1,4,11)             111.0624         calculate D2E/DX2 analytically  !
 ! A16   A(1,4,12)             107.3363         calculate D2E/DX2 analytically  !
 ! A17   A(10,4,11)            108.6341         calculate D2E/DX2 analytically  !
 ! A18   A(10,4,12)            108.6381         calculate D2E/DX2 analytically  !
 ! A19   A(11,4,12)            108.9375         calculate D2E/DX2 analytically  !
 ! D1    D(4,1,2,3)             68.9772         calculate D2E/DX2 analytically  !
 ! D2    D(4,1,2,5)           -170.442          calculate D2E/DX2 analytically  !
 ! D3    D(4,1,2,6)            -54.6946         Scan                            !
 ! D4    D(2,1,4,10)           -69.9158         calculate D2E/DX2 analytically  !
 ! D5    D(2,1,4,11)            51.8537         calculate D2E/DX2 analytically  !
 ! D6    D(2,1,4,12)           170.836          calculate D2E/DX2 analytically  !
 ! D7    D(1,2,3,7)            173.1413         calculate D2E/DX2 analytically  !
 ! D8    D(1,2,3,8)             53.6329         calculate D2E/DX2 analytically  !
 ! D9    D(1,2,3,9)            -67.2541         calculate D2E/DX2 analytically  !
 ! D10   D(5,2,3,7)             55.1414         calculate D2E/DX2 analytically  !
 ! D11   D(5,2,3,8)            -64.3671         calculate D2E/DX2 analytically  !
 ! D12   D(5,2,3,9)            174.7459         calculate D2E/DX2 analytically  !
 ! D13   D(6,2,3,7)            -63.5536         calculate D2E/DX2 analytically  !
 ! D14   D(6,2,3,8)            176.938          calculate D2E/DX2 analytically  !
 ! D15   D(6,2,3,9)             56.051          calculate D2E/DX2 analytically  !
 --------------------------------------------------------------------------------
 Trust Radius=3.00D-01 FncErr=1.00D-07 GrdErr=1.00D-06 EigMax=2.50D+02 EigMin=1.00D-04
 Number of optimizations in scan=  37
 Number of steps in this run=     55 maximum allowed number of steps=    100.
 GradGradGradGradGradGradGradGradGradGradGradGradGradGradGradGradGradGrad

 Leave Link  103 at Mon Mar 11 00:05:10 2019, MaxMem=   671088640 cpu:               0.1 elap:               0.0
 (Enter /shared/centos7/gaussian/g16/l202.exe)
                          Input orientation:                          
 ---------------------------------------------------------------------
 Center     Atomic      Atomic             Coordinates (Angstroms)
 Number     Number       Type             X           Y           Z
 ---------------------------------------------------------------------
      1          8           0        0.809525   -0.531213   -0.691322
      2          6           0       -0.203930   -0.899128    0.216636
      3          6           0       -1.432492   -0.005739    0.149102
      4          6           0        1.435825    0.686147   -0.381308
      5          1           0       -0.471665   -1.922366   -0.044094
      6          1           0        0.202384   -0.909012    1.236370
      7          1           0       -2.221390   -0.411012    0.782398
      8          1           0       -1.802771    0.046161   -0.874352
      9          1           0       -1.219095    1.005640    0.492706
     10          1           0        0.773847    1.542379   -0.538749
     11          1           0        1.781864    0.697516    0.658864
     12          1           0        2.295148    0.785463   -1.040207
 ---------------------------------------------------------------------
                    Distance matrix (angstroms):
                    1          2          3          4          5
     1  O    0.000000
     2  C    1.409553   0.000000
     3  C    2.451342   1.520549   0.000000
     4  C    1.403684   2.357845   2.997880   0.000000
     5  H    1.998914   1.089347   2.152666   3.249088   0.000000
     6  H    2.056052   1.097746   2.161220   2.585110   1.766582
     7  H    3.372350   2.151393   1.089803   3.991641   2.455366
     8  H    2.681595   2.154094   1.089614   3.337841   2.517195
     9  H    2.806981   2.175987   1.089261   2.813286   3.069206
    10  H    2.079504   2.736350   2.781679   1.093680   3.714894
    11  H    2.068386   2.586158   3.329641   1.096280   3.526517
    12  H    2.015548   3.265408   3.991962   1.087404   3.997478
                    6          7          8          9         10
     6  H    0.000000
     7  H    2.515706   0.000000
     8  H    3.064009   1.768918   0.000000
     9  H    2.497906   1.759380   1.769216   0.000000
    10  H    3.080087   3.812166   2.998376   2.307337   0.000000
    11  H    2.325770   4.155735   3.952799   3.021308   1.778811
    12  H    3.526146   5.015233   4.167376   3.840339   1.771649
                   11         12
    11  H    0.000000
    12  H    1.777087   0.000000
 Stoichiometry    C3H8O
 Framework group  C1[X(C3H8O)]
 Deg. of freedom    30
 Full point group                 C1      NOp   1
 Largest Abelian subgroup         C1      NOp   1
 Largest concise Abelian subgroup C1      NOp   1
                         Standard orientation:                         
 ---------------------------------------------------------------------
 Center     Atomic      Atomic             Coordinates (Angstroms)
 Number     Number       Type             X           Y           Z
 ---------------------------------------------------------------------
      1          8           0        0.664370   -0.566784   -0.378307
      2          6           0       -0.597754   -0.637805    0.245262
      3          6           0       -1.506695    0.534243   -0.089701
      4          6           0        1.483517    0.462202    0.112117
      5          1           0       -1.043894   -1.568034   -0.104468
      6          1           0       -0.466455   -0.717537    1.332207
      7          1           0       -2.501401    0.361658    0.320718
      8          1           0       -1.592724    0.645390   -1.170212
      9          1           0       -1.134516    1.469361    0.326866
     10          1           0        1.117736    1.452389   -0.174011
     11          1           0        1.558770    0.418893    1.204953
     12          1           0        2.473120    0.320308   -0.315666
 ---------------------------------------------------------------------
 Rotational constants (GHZ):          15.6887751           5.3470383           4.5777204
 Leave Link  202 at Mon Mar 11 00:05:10 2019, MaxMem=   671088640 cpu:               0.1 elap:               0.0
 (Enter /shared/centos7/gaussian/g16/l301.exe)
 Standard basis: 6-311+G(2df,2p) (5D, 7F)
 Ernie: Thresh=  0.10000D-02 Tol=  0.10000D-05 Strict=F.
 There are   228 symmetry adapted cartesian basis functions of A   symmetry.
 There are   208 symmetry adapted basis functions of A   symmetry.
   208 basis functions,   296 primitive gaussians,   228 cartesian basis functions
    17 alpha electrons       17 beta electrons
       nuclear repulsion energy       135.7064860364 Hartrees.
 IExCor= 4336 DFT=T Ex+Corr=M062X ExCW=0 ScaHFX=  0.540000
 ScaDFX=  1.000000  1.000000  1.000000  1.000000 ScalE2=  1.000000  1.000000
 IRadAn=      5 IRanWt=     -1 IRanGd=            0 ICorTp=0 IEmpDi=  4
 NAtoms=   12 NActive=   12 NUniq=   12 SFac= 1.00D+00 NAtFMM=   60 NAOKFM=F Big=F
 Integral buffers will be    131072 words long.
 Raffenetti 2 integral format.
 Two-electron integral symmetry is turned on.
 Leave Link  301 at Mon Mar 11 00:05:10 2019, MaxMem=   671088640 cpu:               0.8 elap:               0.1
 (Enter /shared/centos7/gaussian/g16/l302.exe)
 NPDir=0 NMtPBC=     1 NCelOv=     1 NCel=       1 NClECP=     1 NCelD=      1
         NCelK=      1 NCelE2=     1 NClLst=     1 CellRange=     0.0.
 One-electron integrals computed using PRISM.
 One-electron integral symmetry used in STVInt
 NBasis=   208 RedAO= T EigKep=  8.93D-05  NBF=   208
 NBsUse=   208 1.00D-06 EigRej= -1.00D+00 NBFU=   208
 Precomputing XC quadrature grid using
 IXCGrd= 4 IRadAn=           5 IRanWt=          -1 IRanGd=           0 AccXCQ= 0.00D+00.
 Generated NRdTot=       0 NPtTot=           0 NUsed=           0 NTot=          32
 NSgBfM=   228   228   228   228   228 MxSgAt=    12 MxSgA2=    12.
 Leave Link  302 at Mon Mar 11 00:05:10 2019, MaxMem=   671088640 cpu:               5.3 elap:               0.3
 (Enter /shared/centos7/gaussian/g16/l303.exe)
 DipDrv:  MaxL=1.
 Leave Link  303 at Mon Mar 11 00:05:10 2019, MaxMem=   671088640 cpu:               0.5 elap:               0.0
 (Enter /shared/centos7/gaussian/g16/l401.exe)
 ExpMin= 4.38D-02 ExpMax= 8.59D+03 ExpMxC= 1.30D+03 IAcc=3 IRadAn=         5 AccDes= 0.00D+00
 Harris functional with IExCor= 1009 and IRadAn=       5 diagonalized for initial guess.
 HarFok:  IExCor= 1009 AccDes= 0.00D+00 IRadAn=         5 IDoV= 1 UseB2=F ITyADJ=14
 ICtDFT=  3500011 ScaDFX=  1.000000  1.000000  1.000000  1.000000
 FoFCou: FMM=F IPFlag=           0 FMFlag=      100000 FMFlg1=           0
         NFxFlg=           0 DoJE=T BraDBF=F KetDBF=T FulRan=T
         wScrn=  0.000000 ICntrl=       500 IOpCl=  0 I1Cent=   200000004 NGrid=           0
         NMat0=    1 NMatS0=      1 NMatT0=    0 NMatD0=    1 NMtDS0=    0 NMtDT0=    0
 Petite list used in FoFCou.
 Harris En= -194.271338227054    
 JPrj=0 DoOrth=F DoCkMO=F.
 Leave Link  401 at Mon Mar 11 00:05:11 2019, MaxMem=   671088640 cpu:              13.2 elap:               0.7
 (Enter /shared/centos7/gaussian/g16/l502.exe)
 Keep R1 ints in memory in canonical form, NReq=257412536.
 FoFCou: FMM=F IPFlag=           0 FMFlag=           0 FMFlg1=           0
         NFxFlg=           0 DoJE=F BraDBF=F KetDBF=F FulRan=T
         wScrn=  0.000000 ICntrl=       600 IOpCl=  0 I1Cent=           0 NGrid=           0
         NMat0=    1 NMatS0=  21736 NMatT0=    0 NMatD0=    1 NMtDS0=    0 NMtDT0=    0
 Symmetry not used in FoFCou.
 Two-electron integral symmetry not used.
 Closed shell SCF:
 Using DIIS extrapolation, IDIIS=  1040.
 NGot=   671088640 LenX=   434740204 LenY=   434687779
 Requested convergence on RMS density matrix=1.00D-08 within 128 cycles.
 Requested convergence on MAX density matrix=1.00D-06.
 Requested convergence on             energy=1.00D-06.
 No special actions if energy rises.

 Cycle   1  Pass 1  IDiag  1:
 E= -194.164148149534    
 DIIS: error= 2.30D-02 at cycle   1 NSaved=   1.
 NSaved= 1 IEnMin= 1 EnMin= -194.164148149534     IErMin= 1 ErrMin= 2.30D-02
 ErrMax= 2.30D-02  0.00D+00 EMaxC= 1.00D-01 BMatC= 1.79D-01 BMatP= 1.79D-01
 IDIUse=3 WtCom= 7.70D-01 WtEn= 2.30D-01
 Coeff-Com:  0.100D+01
 Coeff-En:   0.100D+01
 Coeff:      0.100D+01
 Gap=     0.322 Goal=   None    Shift=    0.000
 GapD=    0.322 DampG=1.000 DampE=0.500 DampFc=0.5000 IDamp=-1.
 Damping current iteration by 5.00D-01
 RMSDP=2.26D-03 MaxDP=1.14D-01              OVMax= 1.37D-01

 Cycle   2  Pass 1  IDiag  1:
 E= -194.241846000657     Delta-E=       -0.077697851123 Rises=F Damp=T
 DIIS: error= 5.06D-03 at cycle   2 NSaved=   2.
 NSaved= 2 IEnMin= 2 EnMin= -194.241846000657     IErMin= 2 ErrMin= 5.06D-03
 ErrMax= 5.06D-03  0.00D+00 EMaxC= 1.00D-01 BMatC= 1.22D-02 BMatP= 1.79D-01
 IDIUse=3 WtCom= 9.49D-01 WtEn= 5.06D-02
 Coeff-Com: -0.137D+00 0.114D+01
 Coeff-En:   0.000D+00 0.100D+01
 Coeff:     -0.130D+00 0.113D+01
 Gap=     0.363 Goal=   None    Shift=    0.000
 RMSDP=7.15D-04 MaxDP=2.57D-02 DE=-7.77D-02 OVMax= 6.97D-02

 Cycle   3  Pass 1  IDiag  1:
 E= -194.312080311267     Delta-E=       -0.070234310610 Rises=F Damp=F
 DIIS: error= 3.08D-03 at cycle   3 NSaved=   3.
 NSaved= 3 IEnMin= 3 EnMin= -194.312080311267     IErMin= 3 ErrMin= 3.08D-03
 ErrMax= 3.08D-03  0.00D+00 EMaxC= 1.00D-01 BMatC= 2.11D-03 BMatP= 1.22D-02
 IDIUse=3 WtCom= 9.69D-01 WtEn= 3.08D-02
 Coeff-Com: -0.823D-01 0.314D+00 0.769D+00
 Coeff-En:   0.000D+00 0.000D+00 0.100D+01
 Coeff:     -0.798D-01 0.304D+00 0.776D+00
 Gap=     0.341 Goal=   None    Shift=    0.000
 RMSDP=1.62D-04 MaxDP=8.61D-03 DE=-7.02D-02 OVMax= 1.23D-02

 Cycle   4  Pass 1  IDiag  1:
 E= -194.313292199735     Delta-E=       -0.001211888468 Rises=F Damp=F
 DIIS: error= 1.13D-03 at cycle   4 NSaved=   4.
 NSaved= 4 IEnMin= 4 EnMin= -194.313292199735     IErMin= 4 ErrMin= 1.13D-03
 ErrMax= 1.13D-03  0.00D+00 EMaxC= 1.00D-01 BMatC= 5.59D-04 BMatP= 2.11D-03
 IDIUse=3 WtCom= 9.89D-01 WtEn= 1.13D-02
 Coeff-Com: -0.296D-01 0.837D-01 0.382D+00 0.564D+00
 Coeff-En:   0.000D+00 0.000D+00 0.120D+00 0.880D+00
 Coeff:     -0.292D-01 0.827D-01 0.379D+00 0.567D+00
 Gap=     0.346 Goal=   None    Shift=    0.000
 RMSDP=6.12D-05 MaxDP=3.75D-03 DE=-1.21D-03 OVMax= 4.75D-03

 Cycle   5  Pass 1  IDiag  1:
 E= -194.313662560076     Delta-E=       -0.000370360341 Rises=F Damp=F
 DIIS: error= 2.36D-04 at cycle   5 NSaved=   5.
 NSaved= 5 IEnMin= 5 EnMin= -194.313662560076     IErMin= 5 ErrMin= 2.36D-04
 ErrMax= 2.36D-04  0.00D+00 EMaxC= 1.00D-01 BMatC= 2.06D-05 BMatP= 5.59D-04
 IDIUse=3 WtCom= 9.98D-01 WtEn= 2.36D-03
 Coeff-Com: -0.423D-02 0.705D-02 0.853D-01 0.220D+00 0.692D+00
 Coeff-En:   0.000D+00 0.000D+00 0.000D+00 0.000D+00 0.100D+01
 Coeff:     -0.422D-02 0.703D-02 0.851D-01 0.220D+00 0.692D+00
 Gap=     0.345 Goal=   None    Shift=    0.000
 RMSDP=1.48D-05 MaxDP=5.28D-04 DE=-3.70D-04 OVMax= 7.60D-04

 Cycle   6  Pass 1  IDiag  1:
 E= -194.313677081581     Delta-E=       -0.000014521506 Rises=F Damp=F
 DIIS: error= 2.93D-05 at cycle   6 NSaved=   6.
 NSaved= 6 IEnMin= 6 EnMin= -194.313677081581     IErMin= 6 ErrMin= 2.93D-05
 ErrMax= 2.93D-05  0.00D+00 EMaxC= 1.00D-01 BMatC= 2.82D-07 BMatP= 2.06D-05
 IDIUse=1 WtCom= 1.00D+00 WtEn= 0.00D+00
 Coeff-Com:  0.589D-03-0.200D-02 0.162D-02 0.235D-01 0.124D+00 0.852D+00
 Coeff:      0.589D-03-0.200D-02 0.162D-02 0.235D-01 0.124D+00 0.852D+00
 Gap=     0.346 Goal=   None    Shift=    0.000
 RMSDP=2.89D-06 MaxDP=1.27D-04 DE=-1.45D-05 OVMax= 1.46D-04

 Cycle   7  Pass 1  IDiag  1:
 E= -194.313677336871     Delta-E=       -0.000000255290 Rises=F Damp=F
 DIIS: error= 1.96D-05 at cycle   7 NSaved=   7.
 NSaved= 7 IEnMin= 7 EnMin= -194.313677336871     IErMin= 7 ErrMin= 1.96D-05
 ErrMax= 1.96D-05  0.00D+00 EMaxC= 1.00D-01 BMatC= 5.69D-08 BMatP= 2.82D-07
 IDIUse=1 WtCom= 1.00D+00 WtEn= 0.00D+00
 Coeff-Com:  0.631D-03-0.142D-02-0.746D-02-0.108D-01-0.195D-01 0.316D+00
 Coeff-Com:  0.723D+00
 Coeff:      0.631D-03-0.142D-02-0.746D-02-0.108D-01-0.195D-01 0.316D+00
 Coeff:      0.723D+00
 Gap=     0.346 Goal=   None    Shift=    0.000
 RMSDP=1.01D-06 MaxDP=5.36D-05 DE=-2.55D-07 OVMax= 5.27D-05

 Cycle   8  Pass 1  IDiag  1:
 E= -194.313677388700     Delta-E=       -0.000000051828 Rises=F Damp=F
 DIIS: error= 2.45D-06 at cycle   8 NSaved=   8.
 NSaved= 8 IEnMin= 8 EnMin= -194.313677388700     IErMin= 8 ErrMin= 2.45D-06
 ErrMax= 2.45D-06  0.00D+00 EMaxC= 1.00D-01 BMatC= 2.34D-09 BMatP= 5.69D-08
 IDIUse=1 WtCom= 1.00D+00 WtEn= 0.00D+00
 Coeff-Com:  0.128D-03-0.266D-03-0.226D-02-0.442D-02-0.138D-01 0.324D-01
 Coeff-Com:  0.202D+00 0.787D+00
 Coeff:      0.128D-03-0.266D-03-0.226D-02-0.442D-02-0.138D-01 0.324D-01
 Coeff:      0.202D+00 0.787D+00
 Gap=     0.346 Goal=   None    Shift=    0.000
 RMSDP=2.76D-07 MaxDP=5.80D-06 DE=-5.18D-08 OVMax= 1.32D-05

 Cycle   9  Pass 1  IDiag  1:
 E= -194.313677391182     Delta-E=       -0.000000002482 Rises=F Damp=F
 DIIS: error= 5.23D-07 at cycle   9 NSaved=   9.
 NSaved= 9 IEnMin= 9 EnMin= -194.313677391182     IErMin= 9 ErrMin= 5.23D-07
 ErrMax= 5.23D-07  0.00D+00 EMaxC= 1.00D-01 BMatC= 5.30D-11 BMatP= 2.34D-09
 IDIUse=1 WtCom= 1.00D+00 WtEn= 0.00D+00
 Coeff-Com: -0.250D-04 0.532D-04 0.177D-03 0.231D-03 0.385D-03-0.121D-01
 Coeff-Com: -0.226D-01 0.678D-01 0.966D+00
 Coeff:     -0.250D-04 0.532D-04 0.177D-03 0.231D-03 0.385D-03-0.121D-01
 Coeff:     -0.226D-01 0.678D-01 0.966D+00
 Gap=     0.346 Goal=   None    Shift=    0.000
 RMSDP=6.25D-08 MaxDP=1.20D-06 DE=-2.48D-09 OVMax= 3.70D-06

 Cycle  10  Pass 1  IDiag  1:
 E= -194.313677391256     Delta-E=       -0.000000000074 Rises=F Damp=F
 DIIS: error= 6.06D-08 at cycle  10 NSaved=  10.
 NSaved=10 IEnMin=10 EnMin= -194.313677391256     IErMin=10 ErrMin= 6.06D-08
 ErrMax= 6.06D-08  0.00D+00 EMaxC= 1.00D-01 BMatC= 1.88D-12 BMatP= 5.30D-11
 IDIUse=1 WtCom= 1.00D+00 WtEn= 0.00D+00
 Coeff-Com: -0.515D-05 0.115D-04 0.668D-04 0.116D-03 0.374D-03-0.237D-02
 Coeff-Com: -0.774D-02-0.109D-01 0.131D+00 0.889D+00
 Coeff:     -0.515D-05 0.115D-04 0.668D-04 0.116D-03 0.374D-03-0.237D-02
 Coeff:     -0.774D-02-0.109D-01 0.131D+00 0.889D+00
 Gap=     0.346 Goal=   None    Shift=    0.000
 RMSDP=1.01D-08 MaxDP=3.38D-07 DE=-7.45D-11 OVMax= 6.48D-07

 Cycle  11  Pass 1  IDiag  1:
 E= -194.313677391256     Delta-E=       -0.000000000000 Rises=F Damp=F
 DIIS: error= 3.42D-08 at cycle  11 NSaved=  11.
 NSaved=11 IEnMin=11 EnMin= -194.313677391256     IErMin=11 ErrMin= 3.42D-08
 ErrMax= 3.42D-08  0.00D+00 EMaxC= 1.00D-01 BMatC= 3.27D-13 BMatP= 1.88D-12
 IDIUse=1 WtCom= 1.00D+00 WtEn= 0.00D+00
 Coeff-Com: -0.288D-07 0.353D-06 0.107D-04 0.223D-04 0.934D-04-0.735D-04
 Coeff-Com: -0.127D-02-0.747D-02-0.162D-01 0.272D+00 0.753D+00
 Coeff:     -0.288D-07 0.353D-06 0.107D-04 0.223D-04 0.934D-04-0.735D-04
 Coeff:     -0.127D-02-0.747D-02-0.162D-01 0.272D+00 0.753D+00
 Gap=     0.346 Goal=   None    Shift=    0.000
 RMSDP=3.35D-09 MaxDP=1.05D-07 DE=-5.68D-14 OVMax= 2.30D-07

 SCF Done:  E(RM062X) =  -194.313677391     A.U. after   11 cycles
            NFock= 11  Conv=0.34D-08     -V/T= 2.0039
 KE= 1.935612604347D+02 PE=-7.246993442302D+02 EE= 2.011179203679D+02
 Leave Link  502 at Mon Mar 11 00:05:27 2019, MaxMem=   671088640 cpu:             224.4 elap:              15.5
 (Enter /shared/centos7/gaussian/g16/l801.exe)
 DoSCS=F DFT=T ScalE2(SS,OS)=  1.000000  1.000000
 Range of M.O.s used for correlation:     1   208
 NBasis=   208 NAE=    17 NBE=    17 NFC=     0 NFV=     0
 NROrb=    208 NOA=    17 NOB=    17 NVA=   191 NVB=   191

 **** Warning!!: The largest alpha MO coefficient is  0.37922927D+02

 Leave Link  801 at Mon Mar 11 00:05:27 2019, MaxMem=   671088640 cpu:               0.3 elap:               0.0
 (Enter /shared/centos7/gaussian/g16/l1101.exe)
 Using compressed storage, NAtomX=    12.
 Will process     13 centers per pass.
 Leave Link 1101 at Mon Mar 11 00:05:27 2019, MaxMem=   671088640 cpu:               5.3 elap:               0.3
 (Enter /shared/centos7/gaussian/g16/l1102.exe)
 Symmetrizing basis deriv contribution to polar:
 IMax=3 JMax=2 DiffMx= 0.00D+00
 Leave Link 1102 at Mon Mar 11 00:05:27 2019, MaxMem=   671088640 cpu:               0.4 elap:               0.0
 (Enter /shared/centos7/gaussian/g16/l1110.exe)
 Forming Gx(P) for the SCF density, NAtomX=    12.
 Integral derivatives from FoFJK, PRISM(SPDF).
 Do as many integral derivatives as possible in FoFJK.
 G2DrvN: MDV=     671087640.
 G2DrvN: will do    13 centers at a time, making    1 passes.
 Calling FoFCou, ICntrl=  3107 FMM=F I1Cent=   0 AccDes= 0.00D+00.
 FoFJK:  IHMeth= 1 ICntrl=    3107 DoSepK=F KAlg= 0 I1Cent=           0 FoldK=F
 IRaf=         0 NMat=       1 IRICut=       1 DoRegI=T DoRafI=F ISym2E= 0 IDoP0=0 IntGTp=1.
 FoFCou: FMM=F IPFlag=           0 FMFlag=      100000 FMFlg1=           0
         NFxFlg=           0 DoJE=F BraDBF=F KetDBF=F FulRan=T
         wScrn=  0.000000 ICntrl=      3107 IOpCl=  0 I1Cent=           0 NGrid=           0
         NMat0=    1 NMatS0=      1 NMatT0=    0 NMatD0=    1 NMtDS0=    0 NMtDT0=    0
 Symmetry not used in FoFCou.
 End of G2Drv F.D. properties file   721 does not exist.
 End of G2Drv F.D. properties file   722 does not exist.
 End of G2Drv F.D. properties file   788 does not exist.
 Leave Link 1110 at Mon Mar 11 00:05:54 2019, MaxMem=   671088640 cpu:             532.0 elap:              26.6
 (Enter /shared/centos7/gaussian/g16/l1002.exe)
 Minotr:  Closed shell wavefunction.
          IDoAtm=111111111111
          Direct CPHF calculation.
          Differentiating once with respect to nuclear coordinates.
          Requested convergence is 1.0D-08 RMS, and 1.0D-07 maximum.
          Secondary convergence is 1.0D-12 RMS, and 1.0D-12 maximum.
          NewPWx=T KeepS1=F KeepF1=F KeepIn=T MapXYZ=F SortEE=F KeepMc=T.
         3640 words used for storage of precomputed grid.
 Keep R1 ints in memory in canonical form, NReq=257354618.
 FoFCou: FMM=F IPFlag=           0 FMFlag=           0 FMFlg1=           0
         NFxFlg=           0 DoJE=F BraDBF=F KetDBF=F FulRan=T
         wScrn=  0.000000 ICntrl=       600 IOpCl=  0 I1Cent=           0 NGrid=           0
         NMat0=    1 NMatS0=  21736 NMatT0=    0 NMatD0=    1 NMtDS0=    0 NMtDT0=    0
 Symmetry not used in FoFCou.
 Two-electron integral symmetry not used.
          MDV=     671088640 using IRadAn=       1.
          Solving linear equations simultaneously, MaxMat=       0.
          There are    39 degrees of freedom in the 1st order CPHF.  IDoFFX=6 NUNeed=     0.
     33 vectors produced by pass  0 Test12= 8.33D-15 2.56D-09 XBig12= 6.16D-02 4.83D-02.
 AX will form    33 AO Fock derivatives at one time.
     33 vectors produced by pass  1 Test12= 8.33D-15 2.56D-09 XBig12= 2.24D-03 9.84D-03.
     33 vectors produced by pass  2 Test12= 8.33D-15 2.56D-09 XBig12= 5.72D-05 1.44D-03.
     33 vectors produced by pass  3 Test12= 8.33D-15 2.56D-09 XBig12= 5.45D-07 1.05D-04.
     33 vectors produced by pass  4 Test12= 8.33D-15 2.56D-09 XBig12= 3.19D-09 6.83D-06.
     33 vectors produced by pass  5 Test12= 8.33D-15 2.56D-09 XBig12= 1.21D-11 4.15D-07.
     14 vectors produced by pass  6 Test12= 8.33D-15 2.56D-09 XBig12= 4.61D-14 2.38D-08.
 InvSVY:  IOpt=1 It=  1 EMax= 1.11D-15
 Solved reduced A of dimension   212 with    33 vectors.
 End of Minotr F.D. properties file   721 does not exist.
 End of Minotr F.D. properties file   722 does not exist.
 End of Minotr F.D. properties file   788 does not exist.
 Leave Link 1002 at Mon Mar 11 00:06:29 2019, MaxMem=   671088640 cpu:             699.6 elap:              35.0
 (Enter /shared/centos7/gaussian/g16/l601.exe)
 Copying SCF densities to generalized density rwf, IOpCl= 0 IROHF=0.

 **********************************************************************

            Population analysis using the SCF density.

 **********************************************************************

 Orbital symmetries:
       Occupied  (A) (A) (A) (A) (A) (A) (A) (A) (A) (A) (A) (A)
                 (A) (A) (A) (A) (A)
       Virtual   (A) (A) (A) (A) (A) (A) (A) (A) (A) (A) (A) (A)
                 (A) (A) (A) (A) (A) (A) (A) (A) (A) (A) (A) (A)
                 (A) (A) (A) (A) (A) (A) (A) (A) (A) (A) (A) (A)
                 (A) (A) (A) (A) (A) (A) (A) (A) (A) (A) (A) (A)
                 (A) (A) (A) (A) (A) (A) (A) (A) (A) (A) (A) (A)
                 (A) (A) (A) (A) (A) (A) (A) (A) (A) (A) (A) (A)
                 (A) (A) (A) (A) (A) (A) (A) (A) (A) (A) (A) (A)
                 (A) (A) (A) (A) (A) (A) (A) (A) (A) (A) (A) (A)
                 (A) (A) (A) (A) (A) (A) (A) (A) (A) (A) (A) (A)
                 (A) (A) (A) (A) (A) (A) (A) (A) (A) (A) (A) (A)
                 (A) (A) (A) (A) (A) (A) (A) (A) (A) (A) (A) (A)
                 (A) (A) (A) (A) (A) (A) (A) (A) (A) (A) (A) (A)
                 (A) (A) (A) (A) (A) (A) (A) (A) (A) (A) (A) (A)
                 (A) (A) (A) (A) (A) (A) (A) (A) (A) (A) (A) (A)
                 (A) (A) (A) (A) (A) (A) (A) (A) (A) (A) (A) (A)
                 (A) (A) (A) (A) (A) (A) (A) (A) (A) (A) (A)
 The electronic state is 1-A.
 Alpha  occ. eigenvalues --  -19.62041 -10.57928 -10.57286 -10.52469  -1.15738
 Alpha  occ. eigenvalues --   -0.85666  -0.78095  -0.68585  -0.56220  -0.56154
 Alpha  occ. eigenvalues --   -0.52756  -0.48040  -0.46142  -0.44020  -0.41801
 Alpha  occ. eigenvalues --   -0.37876  -0.32901
 Alpha virt. eigenvalues --    0.01655   0.03267   0.03566   0.04385   0.06415
 Alpha virt. eigenvalues --    0.07081   0.07439   0.08087   0.08809   0.10808
 Alpha virt. eigenvalues --    0.11166   0.13663   0.17448   0.18604   0.19830
 Alpha virt. eigenvalues --    0.21457   0.23139   0.24144   0.24780   0.25970
 Alpha virt. eigenvalues --    0.26822   0.26979   0.29673   0.30480   0.32807
 Alpha virt. eigenvalues --    0.33019   0.35075   0.41486   0.42958   0.44440
 Alpha virt. eigenvalues --    0.46415   0.50708   0.51279   0.53096   0.54165
 Alpha virt. eigenvalues --    0.54937   0.56179   0.56853   0.58572   0.60000
 Alpha virt. eigenvalues --    0.60513   0.62595   0.65409   0.67645   0.68622
 Alpha virt. eigenvalues --    0.69832   0.71080   0.79929   0.81150   0.84707
 Alpha virt. eigenvalues --    0.86171   0.89402   0.90767   0.94992   0.97735
 Alpha virt. eigenvalues --    1.00590   1.05405   1.06635   1.09182   1.10492
 Alpha virt. eigenvalues --    1.12360   1.13742   1.15643   1.16600   1.18634
 Alpha virt. eigenvalues --    1.20566   1.22479   1.22783   1.25249   1.28159
 Alpha virt. eigenvalues --    1.30132   1.30774   1.33015   1.35370   1.36107
 Alpha virt. eigenvalues --    1.40938   1.41720   1.44316   1.44963   1.47495
 Alpha virt. eigenvalues --    1.48595   1.49664   1.52395   1.54507   1.56260
 Alpha virt. eigenvalues --    1.61362   1.62423   1.63699   1.67551   1.76779
 Alpha virt. eigenvalues --    2.00575   2.07861   2.11238   2.23118   2.33614
 Alpha virt. eigenvalues --    2.39826   2.43538   2.47678   2.51600   2.57482
 Alpha virt. eigenvalues --    2.59161   2.61414   2.67293   2.85330   2.85805
 Alpha virt. eigenvalues --    2.88181   2.96982   2.99097   3.02005   3.06453
 Alpha virt. eigenvalues --    3.07687   3.10347   3.11013   3.14645   3.14855
 Alpha virt. eigenvalues --    3.15576   3.20168   3.23183   3.25658   3.29692
 Alpha virt. eigenvalues --    3.33336   3.34607   3.37288   3.41320   3.42448
 Alpha virt. eigenvalues --    3.47380   3.49511   3.51078   3.57433   3.57907
 Alpha virt. eigenvalues --    3.61087   3.62749   3.69271   3.75048   3.76106
 Alpha virt. eigenvalues --    3.82972   3.85950   3.86895   3.87890   3.90545
 Alpha virt. eigenvalues --    3.95233   3.97626   3.99411   4.00215   4.03606
 Alpha virt. eigenvalues --    4.11456   4.13621   4.17009   4.20097   4.21355
 Alpha virt. eigenvalues --    4.22093   4.26063   4.27413   4.30286   4.35909
 Alpha virt. eigenvalues --    4.39167   4.40661   4.42853   4.48821   4.49466
 Alpha virt. eigenvalues --    4.52908   4.56392   4.56754   4.62478   4.90809
 Alpha virt. eigenvalues --    5.09756   5.23684   5.27170   5.28381   5.41760
 Alpha virt. eigenvalues --    5.48907   5.52302   5.54682   5.58957   5.61154
 Alpha virt. eigenvalues --    5.62630   5.71065   5.82348   5.90550   6.24285
 Alpha virt. eigenvalues --    6.46968   6.71590   7.19015   7.21384   7.32703
 Alpha virt. eigenvalues --    7.66991   7.74936  24.34033  24.44043  24.47700
 Alpha virt. eigenvalues --   50.16833
          Condensed to atoms (all electrons):
               1          2          3          4          5          6
     1  O    8.218980   0.170787  -0.098866   0.131014  -0.060870  -0.037607
     2  C    0.170787   5.170125   0.194610  -0.117371   0.443982   0.458906
     3  C   -0.098866   0.194610   5.124136   0.013856  -0.036053  -0.061832
     4  C    0.131014  -0.117371   0.013856   4.973595   0.007638  -0.011108
     5  H   -0.060870   0.443982  -0.036053   0.007638   0.534840  -0.028378
     6  H   -0.037607   0.458906  -0.061832  -0.011108  -0.028378   0.540462
     7  H    0.008990  -0.032108   0.412729   0.000159  -0.005414  -0.001288
     8  H   -0.000133  -0.042053   0.427798  -0.002485  -0.005997   0.005838
     9  H   -0.006107  -0.029482   0.402900   0.003158   0.006522  -0.008611
    10  H   -0.044967  -0.006456  -0.001900   0.437161  -0.000788  -0.001391
    11  H   -0.050950   0.007202  -0.001403   0.419643   0.000518   0.006395
    12  H   -0.054897   0.006780   0.000575   0.433008  -0.000003   0.000121
               7          8          9         10         11         12
     1  O    0.008990  -0.000133  -0.006107  -0.044967  -0.050950  -0.054897
     2  C   -0.032108  -0.042053  -0.029482  -0.006456   0.007202   0.006780
     3  C    0.412729   0.427798   0.402900  -0.001900  -0.001403   0.000575
     4  C    0.000159  -0.002485   0.003158   0.437161   0.419643   0.433008
     5  H   -0.005414  -0.005997   0.006522  -0.000788   0.000518  -0.000003
     6  H   -0.001288   0.005838  -0.008611  -0.001391   0.006395   0.000121
     7  H    0.537789  -0.023640  -0.028004  -0.000006  -0.000013   0.000034
     8  H   -0.023640   0.522998  -0.034564   0.000467   0.000164  -0.000144
     9  H   -0.028004  -0.034564   0.569368  -0.003620  -0.001085   0.000393
    10  H   -0.000006   0.000467  -0.003620   0.582514  -0.054704  -0.029569
    11  H   -0.000013   0.000164  -0.001085  -0.054704   0.583015  -0.022053
    12  H    0.000034  -0.000144   0.000393  -0.029569  -0.022053   0.531315
 Mulliken charges:
               1
     1  O   -0.175375
     2  C   -0.224923
     3  C   -0.376550
     4  C   -0.288268
     5  H    0.144002
     6  H    0.138492
     7  H    0.130774
     8  H    0.151750
     9  H    0.129131
    10  H    0.123257
    11  H    0.113270
    12  H    0.134440
 Sum of Mulliken charges =  -0.00000
 Mulliken charges with hydrogens summed into heavy atoms:
               1
     1  O   -0.175375
     2  C    0.057572
     3  C    0.035105
     4  C    0.082699
 APT charges:
               1
     1  O   -0.134449
     2  C   -0.687128
     3  C   -1.061825
     4  C   -1.058654
     5  H    0.428373
     6  H    0.329201
     7  H    0.470291
     8  H    0.337053
     9  H    0.280586
    10  H    0.285390
    11  H    0.311354
    12  H    0.499808
 Sum of APT charges =  -0.00000
 APT charges with hydrogens summed into heavy atoms:
               1
     1  O   -0.134449
     2  C    0.070446
     3  C    0.026105
     4  C    0.037898
 Electronic spatial extent (au):  <R**2>=            331.7815
 Charge=             -0.0000 electrons
 Dipole moment (field-independent basis, Debye):
    X=             -0.5125    Y=              0.8915    Z=              0.9367  Tot=              1.3910
 Quadrupole moment (field-independent basis, Debye-Ang):
   XX=            -25.0433   YY=            -27.2345   ZZ=            -27.3372
   XY=              1.9431   XZ=              0.5948   YZ=             -0.6787
 Traceless Quadrupole moment (field-independent basis, Debye-Ang):
   XX=              1.4950   YY=             -0.6962   ZZ=             -0.7989
   XY=              1.9431   XZ=              0.5948   YZ=             -0.6787
 Octapole moment (field-independent basis, Debye-Ang**2):
  XXX=              5.9851  YYY=             -2.0242  ZZZ=             -0.6846  XYY=             -0.5371
  XXY=             -0.4334  XXZ=             -0.6640  XZZ=              0.4822  YZZ=             -0.4602
  YYZ=             -0.3610  XYZ=             -0.6071
 Hexadecapole moment (field-independent basis, Debye-Ang**3):
 XXXX=           -274.9050 YYYY=           -101.9474 ZZZZ=            -57.4073 XXXY=              1.8558
 XXXZ=             -5.9982 YYYX=              2.3994 YYYZ=              1.5509 ZZZX=              1.5523
 ZZZY=             -0.5946 XXYY=            -68.1095 XXZZ=            -57.6891 YYZZ=            -27.9730
 XXYZ=              0.1316 YYXZ=              0.3365 ZZXY=             -0.1484
 N-N= 1.357064860364D+02 E-N=-7.246993475351D+02  KE= 1.935612604347D+02
  Exact polarizability:   0.000   0.000   0.000   0.000   0.000   0.000
 Approx polarizability:  49.365   1.345  47.014  -0.593   0.333  47.242
 No NMR shielding tensors so no spin-rotation constants.
 Leave Link  601 at Mon Mar 11 00:06:29 2019, MaxMem=   671088640 cpu:               4.0 elap:               0.2
 (Enter /shared/centos7/gaussian/g16/l701.exe)
 ... and contract with generalized density number  0.
 Compute integral second derivatives.
 Leave Link  701 at Mon Mar 11 00:06:29 2019, MaxMem=   671088640 cpu:               6.3 elap:               0.3
 (Enter /shared/centos7/gaussian/g16/l702.exe)
 L702 exits ... SP integral derivatives will be done elsewhere.
 Leave Link  702 at Mon Mar 11 00:06:29 2019, MaxMem=   671088640 cpu:               0.3 elap:               0.0
 (Enter /shared/centos7/gaussian/g16/l703.exe)
 Integral derivatives from FoFJK, PRISM(SPDF).
 Compute integral second derivatives, UseDBF=F ICtDFT=           0.
 Calling FoFJK, ICntrl=    100147 FMM=F ISym2X=0 I1Cent= 0 IOpClX= 0 NMat=1 NMatS=1 NMatT=0.
 FoFJK:  IHMeth= 1 ICntrl=  100147 DoSepK=F KAlg= 0 I1Cent=           0 FoldK=F
 IRaf=         0 NMat=       1 IRICut=       1 DoRegI=T DoRafI=F ISym2E= 0 IDoP0=0 IntGTp=1.
 FoFCou: FMM=F IPFlag=           0 FMFlag=      100000 FMFlg1=         800
         NFxFlg=           0 DoJE=F BraDBF=F KetDBF=F FulRan=T
         wScrn=  0.000000 ICntrl=    100147 IOpCl=  0 I1Cent=           0 NGrid=           0
         NMat0=    1 NMatS0=      1 NMatT0=    0 NMatD0=    1 NMtDS0=    0 NMtDT0=    0
 Symmetry not used in FoFCou.
 Leave Link  703 at Mon Mar 11 00:07:09 2019, MaxMem=   671088640 cpu:             791.7 elap:              39.6
 (Enter /shared/centos7/gaussian/g16/l716.exe)
 Dipole        =-2.01646491D-01 3.50743380D-01 3.68541165D-01
 Polarizability= 0.00000000D+00 0.00000000D+00 0.00000000D+00
                 0.00000000D+00 0.00000000D+00 0.00000000D+00
 ***** Axes restored to original set *****
 -------------------------------------------------------------------
 Center     Atomic                   Forces (Hartrees/Bohr)
 Number     Number              X              Y              Z
 -------------------------------------------------------------------
      1        8          -0.000000096   -0.000000240    0.000000019
      2        6          -0.000000135    0.000000070    0.000000184
      3        6          -0.000000005    0.000000192    0.000000122
      4        6           0.000000045   -0.000000238   -0.000000232
      5        1          -0.000000214    0.000000055    0.000000392
      6        1           0.000000017    0.000000200    0.000000154
      7        1           0.000000030    0.000000400    0.000000273
      8        1          -0.000000064    0.000000046    0.000000172
      9        1           0.000000156    0.000000229   -0.000000065
     10        1           0.000000123   -0.000000177   -0.000000371
     11        1           0.000000132   -0.000000076   -0.000000289
     12        1           0.000000011   -0.000000463   -0.000000358
 -------------------------------------------------------------------
 Cartesian Forces:  Max     0.000000463 RMS     0.000000207
 Force constants in Cartesian coordinates: 
                1             2             3             4             5 
      1  0.317486D+00
      2  0.170694D+00  0.374133D+00
      3 -0.118181D+00  0.314445D-01  0.274616D+00
      4 -0.151453D+00 -0.443700D-01  0.737658D-01  0.488045D+00
      5 -0.244416D-01 -0.947527D-01  0.137462D-02  0.426840D-01  0.601732D+00
      6  0.924142D-01  0.314516D-01 -0.156104D+00  0.461289D-01  0.342119D-01
      7 -0.347496D-01  0.105568D-01  0.111221D-01 -0.146807D+00  0.561176D-01
      8 -0.124631D-01  0.975333D-02  0.593276D-03  0.610121D-01 -0.135984D+00
      9  0.313098D-01 -0.116568D-01 -0.247807D-02 -0.180914D-01  0.899553D-02
     10 -0.106943D+00 -0.613353D-01  0.423774D-02 -0.255123D-01 -0.337160D-01
     11 -0.794300D-01 -0.214749D+00 -0.324550D-01 -0.178732D-01 -0.203995D-01
     12 -0.179196D-01 -0.614119D-01 -0.932919D-01  0.114337D-01  0.252786D-01
     13 -0.157766D-01 -0.301172D-01 -0.167801D-02 -0.606404D-01 -0.533147D-01
     14 -0.934430D-02 -0.994607D-02  0.147517D-02 -0.589448D-01 -0.282192D+00
     15  0.141415D-01  0.275356D-01  0.335599D-02 -0.231456D-01 -0.723763D-01
     16  0.208659D-02 -0.582983D-02  0.330303D-01 -0.897847D-01 -0.291219D-02
     17 -0.191024D-02  0.829851D-04  0.118922D-01 -0.222954D-02 -0.546673D-01
     18  0.883302D-02  0.639853D-02 -0.335246D-01 -0.908076D-01 -0.169745D-02
     19 -0.684086D-02  0.328657D-02  0.290820D-03 -0.153783D-01 -0.141174D-01
     20  0.627321D-02 -0.179744D-02 -0.737665D-03  0.121472D-01  0.857926D-02
     21  0.331722D-03  0.653858D-04  0.141409D-02 -0.240335D-02 -0.103263D-02
     22  0.349245D-02 -0.136033D-02  0.872597D-03 -0.114418D-01  0.210424D-02
     23 -0.218436D-02  0.105799D-02 -0.123964D-02  0.687109D-02 -0.143104D-02
     24 -0.566101D-03 -0.858696D-03  0.186827D-02  0.363243D-03  0.529507D-03
     25  0.153869D-02 -0.211310D-02 -0.484043D-03  0.835597D-02  0.285239D-01
     26  0.659694D-03  0.163368D-02 -0.650273D-04 -0.560471D-02 -0.193905D-01
     27  0.293509D-03  0.776929D-04 -0.153949D-03  0.113018D-02  0.336872D-02
     28  0.149277D-01 -0.182733D-01  0.295784D-02  0.220954D-02 -0.717542D-03
     29  0.538820D-02 -0.406486D-01 -0.346139D-03  0.509944D-02  0.701328D-03
     30  0.558559D-02 -0.103850D-01  0.393886D-02 -0.535256D-03  0.783924D-03
     31 -0.865509D-02 -0.118324D-01 -0.152001D-01  0.178557D-02  0.110477D-02
     32 -0.201081D-01 -0.127705D-01 -0.340981D-01  0.262995D-02  0.219918D-02
     33 -0.750765D-02 -0.115018D-01 -0.693588D-02  0.316647D-02  0.140428D-02
     34 -0.151131D-01 -0.930583D-02  0.926612D-02  0.621788D-03 -0.131505D-02
     35 -0.331334D-01 -0.119976D-01  0.221618D-01 -0.142160D-02 -0.439488D-02
     36 -0.873483D-02 -0.115925D-02  0.729564D-02 -0.100503D-02 -0.840717D-03
                6             7             8             9            10 
      6  0.557559D+00
      7 -0.129656D-01  0.509742D+00
      8  0.635682D-02  0.454847D-01  0.551113D+00
      9 -0.820444D-01 -0.606570D-02  0.127049D-02  0.584570D+00
     10 -0.310473D-02 -0.414075D-03 -0.922866D-03  0.112488D-03  0.578980D+00
     11  0.561274D-02  0.214268D-02  0.580778D-02 -0.120851D-02 -0.243293D-01
     12  0.219896D-02  0.132762D-02  0.332983D-04 -0.877126D-03 -0.401791D-01
     13 -0.175289D-01  0.580735D-02  0.279354D-01  0.792563D-02 -0.216857D-02
     14 -0.636036D-01 -0.246849D-02 -0.183566D-01 -0.637148D-02 -0.288863D-05
     15 -0.716764D-01  0.111662D-03  0.309711D-02  0.147284D-02  0.177426D-02
     16 -0.940649D-01 -0.105658D-01  0.474251D-03 -0.260394D-01  0.310788D-02
     17 -0.557819D-02  0.107102D-01 -0.157552D-03  0.190963D-01  0.211044D-02
     18 -0.249941D+00 -0.200930D-02 -0.979267D-03  0.230323D-03 -0.259954D-02
     19  0.160676D-01 -0.187493D+00 -0.729219D-01  0.112850D+00  0.891471D-03
     20 -0.130099D-01 -0.738604D-01 -0.845988D-01  0.604779D-01 -0.152410D-03
     21 -0.279961D-03  0.113506D+00  0.597518D-01 -0.137934D+00 -0.390300D-03
     22 -0.282863D-01 -0.758472D-01  0.242679D-02 -0.844295D-01 -0.394526D-03
     23  0.218254D-01  0.303246D-02 -0.489780D-01  0.861804D-02  0.327450D-05
     24 -0.203011D-02 -0.855910D-01  0.982427D-02 -0.287420D+00 -0.157357D-03
     25  0.917988D-02 -0.588271D-01 -0.521723D-01 -0.188283D-01 -0.402778D-03
     26 -0.521294D-02 -0.511904D-01 -0.277807D+00 -0.797557D-01 -0.635193D-03
     27  0.187815D-03 -0.189429D-01 -0.800011D-01 -0.761117D-01  0.322883D-03
     28  0.141969D-03 -0.734552D-03  0.131275D-02  0.505940D-03 -0.157243D+00
     29 -0.312663D-02 -0.312217D-03  0.587437D-04 -0.689915D-04  0.119681D+00
     30 -0.208769D-05  0.796330D-04  0.292816D-03  0.447015D-03 -0.257913D-01
     31 -0.486747D-02 -0.263404D-03 -0.173734D-03  0.399603D-03 -0.742523D-01
     32 -0.541813D-02 -0.282904D-03 -0.199492D-03  0.713202D-03  0.459585D-02
     33  0.198416D-02 -0.419437D-03 -0.145318D-03 -0.103989D-03 -0.697338D-01
     34 -0.311468D-02  0.153022D-03  0.787698D-05  0.351287D-03 -0.215649D+00
     35 -0.350918D-02  0.700330D-04 -0.651231D-03 -0.109997D-03 -0.529645D-02
     36  0.148073D-03 -0.153278D-03 -0.941770D-04  0.248984D-03  0.135509D+00
               11            12            13            14            15 
     11  0.515666D+00
     12 -0.209148D-01  0.584565D+00
     13 -0.308138D-03  0.423228D-02  0.779271D-01
     14  0.214735D-02  0.231942D-02  0.670735D-01  0.306989D+00
     15  0.514908D-03 -0.290390D-02  0.120285D-01  0.667879D-01  0.732828D-01
     16  0.341809D-02  0.390550D-02 -0.218064D-02  0.530873D-03 -0.672643D-02
     17  0.162529D-02  0.374392D-02 -0.117257D-01  0.146490D-02 -0.273564D-01
     18 -0.427761D-02  0.813597D-03 -0.431364D-02 -0.100101D-02 -0.631908D-02
     19  0.203627D-02  0.393988D-03  0.110860D-02  0.223875D-03  0.298829D-03
     20 -0.188798D-02  0.963155D-04 -0.918035D-03  0.521329D-03 -0.410806D-03
     21 -0.565797D-03  0.128807D-03  0.173791D-03 -0.308841D-03  0.125253D-03
     22 -0.389299D-03 -0.192081D-03  0.985992D-03 -0.488672D-03  0.699608D-03
     23  0.159260D-03 -0.474931D-04 -0.808566D-03  0.490384D-03  0.284444D-03
     24  0.278273D-03 -0.856830D-05 -0.289293D-03  0.502427D-03  0.359627D-03
     25 -0.715631D-03  0.712451D-03 -0.452905D-02  0.350034D-02 -0.194306D-03
     26 -0.142489D-02  0.313077D-03  0.375019D-02 -0.625726D-03  0.699090D-03
     27 -0.108048D-02  0.419891D-03 -0.780672D-03  0.481138D-03  0.122043D-02
     28  0.124250D+00 -0.256423D-01 -0.147787D-03  0.106204D-03  0.123918D-03
     29 -0.188822D+00  0.313160D-01 -0.574507D-03 -0.217143D-04  0.268414D-03
     30  0.317380D-01 -0.595911D-01  0.119224D-03 -0.992588D-04  0.106555D-03
     31  0.457123D-02 -0.678839D-01  0.126874D-03  0.662565D-04  0.320589D-03
     32 -0.506359D-01  0.138082D-01  0.309142D-03  0.586027D-04  0.122933D-03
     33  0.911086D-02 -0.274772D+00  0.672441D-04 -0.796153D-04  0.557190D-03
     34 -0.133722D-01  0.129811D+00 -0.512806D-03 -0.251966D-03  0.567545D-03
     35 -0.474866D-01  0.546531D-02 -0.130138D-02 -0.529403D-03  0.833116D-03
     36  0.132475D-01 -0.156682D+00  0.438937D-04 -0.102289D-03  0.418739D-03
               16            17            18            19            20 
     16  0.996627D-01
     17  0.744956D-03  0.518761D-01
     18  0.901910D-01 -0.110915D-02  0.285830D+00
     19  0.450815D-03 -0.289947D-03 -0.103459D-02  0.202619D+00
     20 -0.700742D-03  0.508255D-03  0.518933D-03  0.792880D-01  0.896185D-01
     21  0.434414D-03 -0.379618D-03 -0.862616D-04 -0.125193D+00 -0.652522D-01
     22 -0.408703D-02  0.378718D-02  0.263867D-03  0.936494D-02 -0.166894D-03
     23  0.380878D-02 -0.170938D-02 -0.271059D-03  0.506888D-02 -0.149427D-02
     24  0.517314D-03  0.470261D-03  0.136395D-02 -0.641781D-02 -0.180035D-04
     25  0.127056D-02 -0.114822D-02  0.141193D-03 -0.497427D-02 -0.215811D-01
     26 -0.191035D-04  0.759930D-03  0.355749D-03 -0.213470D-02 -0.106696D-01
     27  0.716192D-03  0.374089D-03  0.186678D-03  0.301102D-02  0.184518D-01
     28 -0.313476D-03 -0.133633D-03  0.459516D-04  0.420096D-03 -0.354491D-03
     29 -0.417922D-03 -0.188199D-03  0.563879D-03 -0.123998D-03  0.586340D-03
     30 -0.427181D-03 -0.171398D-03  0.418557D-05 -0.149136D-03 -0.205481D-03
     31  0.263378D-03  0.647411D-04  0.993497D-03 -0.921879D-04  0.807106D-04
     32  0.713167D-03  0.399549D-03  0.146224D-02 -0.215853D-03  0.179249D-03
     33 -0.156938D-02 -0.792505D-03  0.857575D-03 -0.105725D-03  0.383765D-04
     34  0.896442D-04  0.198123D-04  0.296197D-03 -0.762936D-04 -0.550468D-04
     35  0.189681D-03  0.541172D-05  0.362173D-04 -0.998108D-04  0.455116D-03
     36  0.326293D-04 -0.189476D-03  0.584957D-03 -0.114951D-04  0.506970D-04
               21            22            23            24            25 
     21  0.146257D+00
     22  0.227020D-01  0.811965D-01
     23  0.112367D-01 -0.642477D-02  0.495144D-01
     24 -0.158311D-01  0.945218D-01 -0.113353D-01  0.310057D+00
     25 -0.896715D-02 -0.334061D-02 -0.958471D-02 -0.216882D-02  0.631493D-01
     26 -0.369285D-02  0.504470D-03  0.269558D-02  0.695644D-03  0.557332D-01
     27  0.633152D-02 -0.614373D-02 -0.290898D-01 -0.819809D-02  0.201196D-01
     28 -0.280163D-03 -0.139303D-03  0.159617D-03 -0.225767D-03 -0.219067D-02
     29  0.694550D-04 -0.110000D-03 -0.119799D-03 -0.438400D-04 -0.420657D-03
     30 -0.166496D-03 -0.158798D-03 -0.404204D-04 -0.180593D-03  0.883038D-03
     31  0.863305D-04  0.213249D-03  0.617592D-04  0.542790D-04 -0.810629D-04
     32  0.138080D-04  0.125269D-03 -0.216818D-03 -0.486493D-04 -0.694922D-05
     33  0.400759D-04  0.949763D-04  0.390206D-04  0.132546D-04 -0.294531D-03
     34  0.000000D+00 -0.270737D-05 -0.345715D-05 -0.404817D-04  0.310339D-04
     35  0.947686D-04 -0.798351D-05  0.316834D-04  0.412328D-05 -0.147813D-04
     36  0.000000D+00  0.555675D-04  0.201058D-04  0.633338D-05 -0.990484D-04
               26            27            28            29            30 
     26  0.303391D+00
     27  0.865624D-01  0.766549D-01
     28 -0.117731D-02  0.539592D-03  0.163677D+00
     29  0.913760D-03  0.504946D-03 -0.130295D+00  0.222771D+00
     30  0.693389D-04 -0.269036D-03  0.278494D-01 -0.298492D-01  0.557046D-01
     31  0.244539D-03 -0.101743D-03 -0.538262D-02  0.215528D-02 -0.207032D-01
     32 -0.603504D-04  0.852513D-04  0.661095D-02  0.135628D-02  0.235392D-01
     33 -0.476062D-05 -0.188747D-03 -0.448615D-03  0.119644D-02 -0.433126D-02
     34 -0.130662D-03 -0.163974D-03 -0.150828D-01 -0.700088D-04  0.132480D-01
     35  0.583975D-03  0.265340D-03  0.185117D-01  0.341296D-02 -0.156725D-01
     36  0.360058D-04 -0.797961D-04 -0.556780D-02 -0.484395D-03  0.433937D-02
               31            32            33            34            35 
     31  0.761817D-01
     32  0.413814D-02  0.592422D-01
     33  0.830781D-01 -0.115753D-02  0.299701D+00
     34  0.101558D-01  0.149129D-02 -0.632766D-02  0.235385D+00
     35 -0.481249D-03  0.448048D-03  0.189256D-02  0.229852D-01  0.601225D-01
     36  0.238240D-01  0.977583D-03 -0.168217D-01 -0.143893D+00 -0.114616D-01
               36 
     36  0.160541D+00
 FormGI is forming the generalized inverse of G from B-inverse, IUseBI=4.
 Leave Link  716 at Mon Mar 11 00:07:09 2019, MaxMem=   671088640 cpu:               0.5 elap:               0.0
 (Enter /shared/centos7/gaussian/g16/l103.exe)

 GradGradGradGradGradGradGradGradGradGradGradGradGradGradGradGradGradGrad
 Berny optimization.
 Red2BG is reusing G-inverse.
 Internal  Forces:  Max     0.000000056 RMS     0.000000016
 Search for a local minimum.
 Step number   1 out of a maximum of   55 on scan point     1 out of    37
 All quantities printed in internal units (Hartrees-Bohrs-Radians)
 RMS Force = .14541D-07 SwitMx=.10000D-02 MixMth= 2
 Mixed Optimization -- En-DIIS/RFO-DIIS
 Second derivative matrix not updated -- analytic derivatives used.
 ITU=  0
     Eigenvalues ---    0.00234   0.00475   0.04204   0.04423   0.04478
     Eigenvalues ---    0.05658   0.08394   0.08741   0.08848   0.12068
     Eigenvalues ---    0.12222   0.13017   0.13453   0.16321   0.18368
     Eigenvalues ---    0.18740   0.24690   0.26353   0.29468   0.32167
     Eigenvalues ---    0.32626   0.33342   0.34183   0.34350   0.34427
     Eigenvalues ---    0.34864   0.35194   0.40030   0.456011000.00000
     Eigenvalues --- 1000.000001000.000001000.000001000.000001000.00000
     Eigenvalues --- 1000.000001000.000001000.000001000.000001000.00000
     Eigenvalues --- 1000.000001000.000001000.000001000.000001000.00000
 RFO step:  Lambda= 0.00000000D+00 EMin= 2.33919430D-03
 Linear search not attempted -- first point.
 Iteration  1 RMS(Cart)=  0.00000184 RMS(Int)=  0.00000000
 Iteration  2 RMS(Cart)=  0.00000000 RMS(Int)=  0.00000000
 Iteration  1 RMS(Cart)=  0.00000000 RMS(Int)=  0.00000000
 ITry= 1 IFail=0 DXMaxC= 6.83D-06 DCOld= 1.00D+10 DXMaxT= 3.00D-01 DXLimC= 3.00D+00 Rises=F
 Variable       Old X    -DE/DX   Delta X   Delta X   Delta X     New X
                                 (Linear)    (Quad)   (Total)
    R1        2.66367   0.00000   0.00000   0.00000   0.00000   2.66367
    R2        2.65258   0.00000   0.00000   0.00000   0.00000   2.65258
    R3        2.87342  -0.00000   0.00000  -0.00000  -0.00000   2.87342
    R4        2.05857  -0.00000   0.00000  -0.00000  -0.00000   2.05857
    R5        2.07444   0.00000   0.00000   0.00000   0.00000   2.07444
    R6        2.05943  -0.00000   0.00000  -0.00000  -0.00000   2.05943
    R7        2.05907  -0.00000   0.00000  -0.00000  -0.00000   2.05907
    R8        2.05841   0.00000   0.00000   0.00000   0.00000   2.05841
    R9        2.06676   0.00000   0.00000   0.00000   0.00000   2.06676
   R10        2.07167  -0.00000   0.00000  -0.00000  -0.00000   2.07167
   R11        2.05490   0.00000   0.00000   0.00000   0.00000   2.05490
    A1        1.98767   0.00000   0.00000   0.00000   0.00000   1.98767
    A2        1.98118   0.00000   0.00000   0.00000   0.00000   1.98118
    A3        1.84181  -0.00000   0.00000  -0.00000  -0.00000   1.84181
    A4        1.91197  -0.00000   0.00000  -0.00000  -0.00000   1.91197
    A5        1.92056   0.00000   0.00000   0.00000   0.00000   1.92056
    A6        1.92368  -0.00000   0.00000  -0.00000  -0.00000   1.92368
    A7        1.88058   0.00000   0.00000   0.00000   0.00000   1.88058
    A8        1.91833  -0.00000   0.00000  -0.00000  -0.00000   1.91833
    A9        1.92226   0.00000   0.00000   0.00000   0.00000   1.92226
   A10        1.95329   0.00000   0.00000  -0.00000  -0.00000   1.95329
   A11        1.89393   0.00000   0.00000   0.00000   0.00000   1.89393
   A12        1.87947  -0.00000   0.00000  -0.00000  -0.00000   1.87947
   A13        1.89509   0.00000   0.00000   0.00000   0.00000   1.89509
   A14        1.95747  -0.00000   0.00000  -0.00000  -0.00000   1.95747
   A15        1.93841   0.00000   0.00000   0.00000   0.00000   1.93841
   A16        1.87337  -0.00000   0.00000  -0.00000  -0.00000   1.87337
   A17        1.89602   0.00000   0.00000   0.00000   0.00000   1.89602
   A18        1.89609  -0.00000   0.00000   0.00000   0.00000   1.89609
   A19        1.90132   0.00000   0.00000   0.00000   0.00000   1.90132
    D1        1.20388  -0.00000   0.00000  -0.00000  -0.00000   1.20388
    D2       -2.97477  -0.00000   0.00000  -0.00000  -0.00000  -2.97477
    D3       -0.95460  -0.00000   0.00000   0.00000  -0.00000  -0.95460
    D4       -1.22026  -0.00000   0.00000  -0.00000  -0.00000  -1.22027
    D5        0.90502  -0.00000   0.00000  -0.00000  -0.00000   0.90501
    D6        2.98165  -0.00000   0.00000  -0.00000  -0.00000   2.98165
    D7        3.02189  -0.00000   0.00000  -0.00000  -0.00000   3.02189
    D8        0.93607  -0.00000   0.00000  -0.00000  -0.00000   0.93607
    D9       -1.17381  -0.00000   0.00000  -0.00000  -0.00000  -1.17381
   D10        0.96240  -0.00000   0.00000  -0.00000  -0.00000   0.96240
   D11       -1.12342  -0.00000   0.00000  -0.00000  -0.00000  -1.12342
   D12        3.04989  -0.00000   0.00000  -0.00000  -0.00000   3.04989
   D13       -1.10922   0.00000   0.00000  -0.00000  -0.00000  -1.10922
   D14        3.08815   0.00000   0.00000  -0.00000  -0.00000   3.08815
   D15        0.97827  -0.00000   0.00000  -0.00000  -0.00000   0.97827
         Item               Value     Threshold  Converged?
 Maximum Force            0.000000     0.000450     YES
 RMS     Force            0.000000     0.000300     YES
 Maximum Displacement     0.000007     0.001800     YES
 RMS     Displacement     0.000002     0.001200     YES
 Predicted change in Energy=-1.245840D-13
 Optimization completed.
    -- Stationary point found.
                           ----------------------------
                           !   Optimized Parameters   !
                           ! (Angstroms and Degrees)  !
 --------------------------                            --------------------------
 ! Name  Definition              Value          Derivative Info.                !
 --------------------------------------------------------------------------------
 ! R1    R(1,2)                  1.4096         -DE/DX =    0.0                 !
 ! R2    R(1,4)                  1.4037         -DE/DX =    0.0                 !
 ! R3    R(2,3)                  1.5205         -DE/DX =    0.0                 !
 ! R4    R(2,5)                  1.0893         -DE/DX =    0.0                 !
 ! R5    R(2,6)                  1.0977         -DE/DX =    0.0                 !
 ! R6    R(3,7)                  1.0898         -DE/DX =    0.0                 !
 ! R7    R(3,8)                  1.0896         -DE/DX =    0.0                 !
 ! R8    R(3,9)                  1.0893         -DE/DX =    0.0                 !
 ! R9    R(4,10)                 1.0937         -DE/DX =    0.0                 !
 ! R10   R(4,11)                 1.0963         -DE/DX =    0.0                 !
 ! R11   R(4,12)                 1.0874         -DE/DX =    0.0                 !
 ! A1    A(2,1,4)              113.8852         -DE/DX =    0.0                 !
 ! A2    A(1,2,3)              113.513          -DE/DX =    0.0                 !
 ! A3    A(1,2,5)              105.5282         -DE/DX =    0.0                 !
 ! A4    A(1,2,6)              109.548          -DE/DX =    0.0                 !
 ! A5    A(3,2,5)              110.0401         -DE/DX =    0.0                 !
 ! A6    A(3,2,6)              110.2189         -DE/DX =    0.0                 !
 ! A7    A(5,2,6)              107.749          -DE/DX =    0.0                 !
 ! A8    A(2,3,7)              109.9123         -DE/DX =    0.0                 !
 ! A9    A(2,3,8)              110.1374         -DE/DX =    0.0                 !
 ! A10   A(2,3,9)              111.9152         -DE/DX =    0.0                 !
 ! A11   A(7,3,8)              108.5144         -DE/DX =    0.0                 !
 ! A12   A(7,3,9)              107.6857         -DE/DX =    0.0                 !
 ! A13   A(8,3,9)              108.5808         -DE/DX =    0.0                 !
 ! A14   A(1,4,10)             112.155          -DE/DX =    0.0                 !
 ! A15   A(1,4,11)             111.0624         -DE/DX =    0.0                 !
 ! A16   A(1,4,12)             107.3363         -DE/DX =    0.0                 !
 ! A17   A(10,4,11)            108.6341         -DE/DX =    0.0                 !
 ! A18   A(10,4,12)            108.6381         -DE/DX =    0.0                 !
 ! A19   A(11,4,12)            108.9375         -DE/DX =    0.0                 !
 ! D1    D(4,1,2,3)             68.9772         -DE/DX =    0.0                 !
 ! D2    D(4,1,2,5)           -170.442          -DE/DX =    0.0                 !
 ! D3    D(4,1,2,6)            -54.6946         -DE/DX =    0.0                 !
 ! D4    D(2,1,4,10)           -69.9158         -DE/DX =    0.0                 !
 ! D5    D(2,1,4,11)            51.8537         -DE/DX =    0.0                 !
 ! D6    D(2,1,4,12)           170.836          -DE/DX =    0.0                 !
 ! D7    D(1,2,3,7)            173.1413         -DE/DX =    0.0                 !
 ! D8    D(1,2,3,8)             53.6329         -DE/DX =    0.0                 !
 ! D9    D(1,2,3,9)            -67.2541         -DE/DX =    0.0                 !
 ! D10   D(5,2,3,7)             55.1414         -DE/DX =    0.0                 !
 ! D11   D(5,2,3,8)            -64.3671         -DE/DX =    0.0                 !
 ! D12   D(5,2,3,9)            174.7459         -DE/DX =    0.0                 !
 ! D13   D(6,2,3,7)            -63.5536         -DE/DX =    0.0                 !
 ! D14   D(6,2,3,8)            176.938          -DE/DX =    0.0                 !
 ! D15   D(6,2,3,9)             56.051          -DE/DX =    0.0                 !
 --------------------------------------------------------------------------------
 Lowest energy point so far.  Saving SCF results.
 Iteration  1 RMS(Cart)=  0.02876146 RMS(Int)=  0.01753462
 Iteration  2 RMS(Cart)=  0.00135493 RMS(Int)=  0.01751562
 Iteration  3 RMS(Cart)=  0.00008604 RMS(Int)=  0.01751559
 Iteration  4 RMS(Cart)=  0.00000446 RMS(Int)=  0.01751559
 Iteration  5 RMS(Cart)=  0.00000028 RMS(Int)=  0.01751559
 Iteration  1 RMS(Cart)=  0.01287283 RMS(Int)=  0.00780855
 Iteration  2 RMS(Cart)=  0.00572976 RMS(Int)=  0.00870462
 Iteration  3 RMS(Cart)=  0.00252501 RMS(Int)=  0.00958966
 Iteration  4 RMS(Cart)=  0.00110756 RMS(Int)=  0.01004702
 Iteration  5 RMS(Cart)=  0.00048480 RMS(Int)=  0.01025843
 Iteration  6 RMS(Cart)=  0.00021201 RMS(Int)=  0.01035288
 Iteration  7 RMS(Cart)=  0.00009268 RMS(Int)=  0.01039453
 Iteration  8 RMS(Cart)=  0.00004050 RMS(Int)=  0.01041280
 Iteration  9 RMS(Cart)=  0.00001770 RMS(Int)=  0.01042080
 Iteration 10 RMS(Cart)=  0.00000774 RMS(Int)=  0.01042430
 Iteration 11 RMS(Cart)=  0.00000338 RMS(Int)=  0.01042583
 Iteration 12 RMS(Cart)=  0.00000148 RMS(Int)=  0.01042650
 Iteration 13 RMS(Cart)=  0.00000065 RMS(Int)=  0.01042679
 GradGradGradGradGradGradGradGradGradGradGradGradGradGradGradGradGradGrad

 Leave Link  103 at Mon Mar 11 00:07:09 2019, MaxMem=   671088640 cpu:               0.6 elap:               0.1
 (Enter /shared/centos7/gaussian/g16/l202.exe)
                          Input orientation:                          
 ---------------------------------------------------------------------
 Center     Atomic      Atomic             Coordinates (Angstroms)
 Number     Number       Type             X           Y           Z
 ---------------------------------------------------------------------
      1          8           0        0.782538   -0.503930   -0.720711
      2          6           0       -0.198197   -0.902541    0.210043
      3          6           0       -1.435374   -0.021469    0.137972
      4          6           0        1.446768    0.682885   -0.373022
      5          1           0       -0.472223   -1.929929   -0.026828
      6          1           0        0.169141   -0.816133    1.241298
      7          1           0       -2.212090   -0.418126    0.791495
      8          1           0       -1.819842    0.002722   -0.881308
      9          1           0       -1.226266    0.999662    0.454392
     10          1           0        0.796401    1.558688   -0.454357
     11          1           0        1.837646    0.630560    0.650109
     12          1           0        2.278748    0.802447   -1.063041
 ---------------------------------------------------------------------
                    Distance matrix (angstroms):
                    1          2          3          4          5
     1  O    0.000000
     2  C    1.409623   0.000000
     3  C    2.426776   1.520556   0.000000
     4  C    1.403787   2.357849   3.010643   0.000000
     5  H    2.022220   1.089369   2.144071   3.260242   0.000000
     6  H    2.079233   1.098131   2.103161   2.546648   1.805556
     7  H    3.355880   2.151397   1.089824   3.994442   2.445882
     8  H    2.656101   2.154131   1.089648   3.375162   2.506263
     9  H    2.770731   2.176008   1.089291   2.816038   3.063112
    10  H    2.079790   2.736476   2.797958   1.093902   3.736661
    11  H    2.068687   2.586255   3.376401   1.096503   3.514234
    12  H    2.015553   3.265422   3.989482   1.087480   4.013410
                    6          7          8          9         10
     6  H    0.000000
     7  H    2.455808   0.000000
     8  H    3.021925   1.768966   0.000000
     9  H    2.421465   1.759434   1.769269   0.000000
    10  H    2.984707   3.809325   3.073767   2.286814   0.000000
    11  H    2.286118   4.185701   4.014553   3.092264   1.779173
    12  H    3.518554   5.009663   4.179836   3.824476   1.771933
                   11         12
    11  H    0.000000
    12  H    1.777357   0.000000
 Stoichiometry    C3H8O
 Framework group  C1[X(C3H8O)]
 Deg. of freedom    30
 Full point group                 C1      NOp   1
 RotChk:  IX=0 Diff= 2.90D-02
 Largest Abelian subgroup         C1      NOp   1
 Largest concise Abelian subgroup C1      NOp   1
                         Standard orientation:                         
 ---------------------------------------------------------------------
 Center     Atomic      Atomic             Coordinates (Angstroms)
 Number     Number       Type             X           Y           Z
 ---------------------------------------------------------------------
      1          8           0        0.647638   -0.550125   -0.397605
      2          6           0       -0.594888   -0.636088    0.262529
      3          6           0       -1.505851    0.527324   -0.096229
      4          6           0        1.496155    0.443456    0.115653
      5          1           0       -1.062976   -1.569922   -0.046620
      6          1           0       -0.473267   -0.593642    1.353078
      7          1           0       -2.491171    0.376784    0.344450
      8          1           0       -1.617510    0.596643   -1.177922
      9          1           0       -1.119018    1.475820    0.274272
     10          1           0        1.135161    1.451143   -0.109896
     11          1           0        1.605565    0.345536    1.202281
     12          1           0        2.469610    0.310488   -0.350521
 ---------------------------------------------------------------------
 Rotational constants (GHZ):          15.9128203           5.3102207           4.6039990
 Leave Link  202 at Mon Mar 11 00:07:09 2019, MaxMem=   671088640 cpu:               0.2 elap:               0.0
 (Enter /shared/centos7/gaussian/g16/l301.exe)
 Standard basis: 6-311+G(2df,2p) (5D, 7F)
 Ernie: Thresh=  0.10000D-02 Tol=  0.10000D-05 Strict=F.
 There are   228 symmetry adapted cartesian basis functions of A   symmetry.
 There are   208 symmetry adapted basis functions of A   symmetry.
   208 basis functions,   296 primitive gaussians,   228 cartesian basis functions
    17 alpha electrons       17 beta electrons
       nuclear repulsion energy       135.8123181133 Hartrees.
 IExCor= 4336 DFT=T Ex+Corr=M062X ExCW=0 ScaHFX=  0.540000
 ScaDFX=  1.000000  1.000000  1.000000  1.000000 ScalE2=  1.000000  1.000000
 IRadAn=      5 IRanWt=     -1 IRanGd=            0 ICorTp=0 IEmpDi=  4
 NAtoms=   12 NActive=   12 NUniq=   12 SFac= 1.00D+00 NAtFMM=   60 NAOKFM=F Big=F
 Integral buffers will be    131072 words long.
 Raffenetti 2 integral format.
 Two-electron integral symmetry is turned on.
 Leave Link  301 at Mon Mar 11 00:07:09 2019, MaxMem=   671088640 cpu:               0.8 elap:               0.1
 (Enter /shared/centos7/gaussian/g16/l302.exe)
 NPDir=0 NMtPBC=     1 NCelOv=     1 NCel=       1 NClECP=     1 NCelD=      1
         NCelK=      1 NCelE2=     1 NClLst=     1 CellRange=     0.0.
 One-electron integrals computed using PRISM.
 One-electron integral symmetry used in STVInt
 NBasis=   208 RedAO= T EigKep=  8.91D-05  NBF=   208
 NBsUse=   208 1.00D-06 EigRej= -1.00D+00 NBFU=   208
 Precomputing XC quadrature grid using
 IXCGrd= 4 IRadAn=           5 IRanWt=          -1 IRanGd=           0 AccXCQ= 0.00D+00.
 Generated NRdTot=       0 NPtTot=           0 NUsed=           0 NTot=          32
 NSgBfM=   228   228   228   228   228 MxSgAt=    12 MxSgA2=    12.
 Leave Link  302 at Mon Mar 11 00:07:09 2019, MaxMem=   671088640 cpu:               4.9 elap:               0.3
 (Enter /shared/centos7/gaussian/g16/l303.exe)
 DipDrv:  MaxL=1.
 Leave Link  303 at Mon Mar 11 00:07:09 2019, MaxMem=   671088640 cpu:               0.4 elap:               0.0
 (Enter /shared/centos7/gaussian/g16/l401.exe)
 Initial guess from the checkpoint file:  "/scratch/underkoffler.c/gaussian_scratch/Gau-43498.chk"
 B after Tr=    -0.000000   -0.000000   -0.000000
         Rot=    0.999986    0.003909   -0.002462    0.002709 Ang=   0.61 deg.
 Guess basis will be translated and rotated to current coordinates.
 JPrj=2 DoOrth=T DoCkMO=T.
 Generating alternative initial guess.
 ExpMin= 4.38D-02 ExpMax= 8.59D+03 ExpMxC= 1.30D+03 IAcc=2 IRadAn=         4 AccDes= 0.00D+00
 Harris functional with IExCor= 1009 and IRadAn=       4 diagonalized for initial guess.
 HarFok:  IExCor= 1009 AccDes= 0.00D+00 IRadAn=         4 IDoV= 1 UseB2=F ITyADJ=14
 ICtDFT=  3500011 ScaDFX=  1.000000  1.000000  1.000000  1.000000
 FoFCou: FMM=F IPFlag=           0 FMFlag=      100000 FMFlg1=           0
         NFxFlg=           0 DoJE=T BraDBF=F KetDBF=T FulRan=T
         wScrn=  0.000000 ICntrl=       500 IOpCl=  0 I1Cent=   200000004 NGrid=           0
         NMat0=    1 NMatS0=      1 NMatT0=    0 NMatD0=    1 NMtDS0=    0 NMtDT0=    0
 Petite list used in FoFCou.
 Harris En= -194.269870744238    
 Leave Link  401 at Mon Mar 11 00:07:10 2019, MaxMem=   671088640 cpu:              10.7 elap:               0.6
 (Enter /shared/centos7/gaussian/g16/l502.exe)
 Keep R1 ints in memory in canonical form, NReq=257412536.
 FoFCou: FMM=F IPFlag=           0 FMFlag=           0 FMFlg1=           0
         NFxFlg=           0 DoJE=F BraDBF=F KetDBF=F FulRan=T
         wScrn=  0.000000 ICntrl=       600 IOpCl=  0 I1Cent=           0 NGrid=           0
         NMat0=    1 NMatS0=  21736 NMatT0=    0 NMatD0=    1 NMtDS0=    0 NMtDT0=    0
 Symmetry not used in FoFCou.
 Two-electron integral symmetry not used.
 Closed shell SCF:
 Using DIIS extrapolation, IDIIS=  1040.
 NGot=   671088640 LenX=   434740204 LenY=   434687779
 Requested convergence on RMS density matrix=1.00D-08 within 128 cycles.
 Requested convergence on MAX density matrix=1.00D-06.
 Requested convergence on             energy=1.00D-06.
 No special actions if energy rises.

 Cycle   1  Pass 1  IDiag  1:
 E= -194.309849292022    
 DIIS: error= 2.32D-03 at cycle   1 NSaved=   1.
 NSaved= 1 IEnMin= 1 EnMin= -194.309849292022     IErMin= 1 ErrMin= 2.32D-03
 ErrMax= 2.32D-03  0.00D+00 EMaxC= 1.00D-01 BMatC= 1.93D-03 BMatP= 1.93D-03
 IDIUse=3 WtCom= 9.77D-01 WtEn= 2.32D-02
 Coeff-Com:  0.100D+01
 Coeff-En:   0.100D+01
 Coeff:      0.100D+01
 Gap=     0.633 Goal=   None    Shift=    0.000
 GapD=    0.633 DampG=2.000 DampE=1.000 DampFc=2.0000 IDamp=-1.
 RMSDP=3.17D-04 MaxDP=9.44D-03              OVMax= 1.24D-02

 Cycle   2  Pass 1  IDiag  1:
 E= -194.312396331501     Delta-E=       -0.002547039479 Rises=F Damp=F
 DIIS: error= 4.10D-04 at cycle   2 NSaved=   2.
 NSaved= 2 IEnMin= 2 EnMin= -194.312396331501     IErMin= 2 ErrMin= 4.10D-04
 ErrMax= 4.10D-04  0.00D+00 EMaxC= 1.00D-01 BMatC= 5.63D-05 BMatP= 1.93D-03
 IDIUse=3 WtCom= 9.96D-01 WtEn= 4.10D-03
 Coeff-Com: -0.131D+00 0.113D+01
 Coeff-En:   0.000D+00 0.100D+01
 Coeff:     -0.131D+00 0.113D+01
 Gap=     0.345 Goal=   None    Shift=    0.000
 RMSDP=6.26D-05 MaxDP=1.48D-03 DE=-2.55D-03 OVMax= 3.47D-03

 Cycle   3  Pass 1  IDiag  1:
 E= -194.312509374149     Delta-E=       -0.000113042649 Rises=F Damp=F
 DIIS: error= 1.06D-04 at cycle   3 NSaved=   3.
 NSaved= 3 IEnMin= 3 EnMin= -194.312509374149     IErMin= 3 ErrMin= 1.06D-04
 ErrMax= 1.06D-04  0.00D+00 EMaxC= 1.00D-01 BMatC= 5.56D-06 BMatP= 5.63D-05
 IDIUse=3 WtCom= 9.99D-01 WtEn= 1.06D-03
 Coeff-Com: -0.391D-01 0.225D+00 0.814D+00
 Coeff-En:   0.000D+00 0.000D+00 0.100D+01
 Coeff:     -0.391D-01 0.224D+00 0.815D+00
 Gap=     0.344 Goal=   None    Shift=    0.000
 RMSDP=1.44D-05 MaxDP=4.36D-04 DE=-1.13D-04 OVMax= 8.68D-04

 Cycle   4  Pass 1  IDiag  1:
 E= -194.312513764639     Delta-E=       -0.000004390490 Rises=F Damp=F
 DIIS: error= 7.38D-05 at cycle   4 NSaved=   4.
 NSaved= 4 IEnMin= 4 EnMin= -194.312513764639     IErMin= 4 ErrMin= 7.38D-05
 ErrMax= 7.38D-05  0.00D+00 EMaxC= 1.00D-01 BMatC= 2.46D-06 BMatP= 5.56D-06
 IDIUse=1 WtCom= 1.00D+00 WtEn= 0.00D+00
 Coeff-Com: -0.288D-02-0.323D-01 0.398D+00 0.638D+00
 Coeff:     -0.288D-02-0.323D-01 0.398D+00 0.638D+00
 Gap=     0.344 Goal=   None    Shift=    0.000
 RMSDP=5.54D-06 MaxDP=2.59D-04 DE=-4.39D-06 OVMax= 3.82D-04

 Cycle   5  Pass 1  IDiag  1:
 E= -194.312515558486     Delta-E=       -0.000001793847 Rises=F Damp=F
 DIIS: error= 2.01D-05 at cycle   5 NSaved=   5.
 NSaved= 5 IEnMin= 5 EnMin= -194.312515558486     IErMin= 5 ErrMin= 2.01D-05
 ErrMax= 2.01D-05  0.00D+00 EMaxC= 1.00D-01 BMatC= 1.29D-07 BMatP= 2.46D-06
 IDIUse=1 WtCom= 1.00D+00 WtEn= 0.00D+00
 Coeff-Com:  0.269D-02-0.374D-01 0.821D-01 0.244D+00 0.708D+00
 Coeff:      0.269D-02-0.374D-01 0.821D-01 0.244D+00 0.708D+00
 Gap=     0.344 Goal=   None    Shift=    0.000
 RMSDP=1.63D-06 MaxDP=5.47D-05 DE=-1.79D-06 OVMax= 1.07D-04

 Cycle   6  Pass 1  IDiag  1:
 E= -194.312515658486     Delta-E=       -0.000000100000 Rises=F Damp=F
 DIIS: error= 4.71D-06 at cycle   6 NSaved=   6.
 NSaved= 6 IEnMin= 6 EnMin= -194.312515658486     IErMin= 6 ErrMin= 4.71D-06
 ErrMax= 4.71D-06  0.00D+00 EMaxC= 1.00D-01 BMatC= 6.62D-09 BMatP= 1.29D-07
 IDIUse=1 WtCom= 1.00D+00 WtEn= 0.00D+00
 Coeff-Com:  0.108D-02-0.112D-01 0.616D-02 0.466D-01 0.232D+00 0.726D+00
 Coeff:      0.108D-02-0.112D-01 0.616D-02 0.466D-01 0.232D+00 0.726D+00
 Gap=     0.344 Goal=   None    Shift=    0.000
 RMSDP=4.95D-07 MaxDP=1.83D-05 DE=-1.00D-07 OVMax= 3.15D-05

 Cycle   7  Pass 1  IDiag  1:
 E= -194.312515665205     Delta-E=       -0.000000006719 Rises=F Damp=F
 DIIS: error= 1.55D-06 at cycle   7 NSaved=   7.
 NSaved= 7 IEnMin= 7 EnMin= -194.312515665205     IErMin= 7 ErrMin= 1.55D-06
 ErrMax= 1.55D-06  0.00D+00 EMaxC= 1.00D-01 BMatC= 5.34D-10 BMatP= 6.62D-09
 IDIUse=1 WtCom= 1.00D+00 WtEn= 0.00D+00
 Coeff-Com: -0.913D-04 0.208D-02-0.804D-02-0.189D-01-0.432D-01 0.167D+00
 Coeff-Com:  0.901D+00
 Coeff:     -0.913D-04 0.208D-02-0.804D-02-0.189D-01-0.432D-01 0.167D+00
 Coeff:      0.901D+00
 Gap=     0.344 Goal=   None    Shift=    0.000
 RMSDP=2.22D-07 MaxDP=5.57D-06 DE=-6.72D-09 OVMax= 1.60D-05

 Cycle   8  Pass 1  IDiag  1:
[...]
           A8         108.33581 108.49647 108.72692 109.03744 109.37837
           A9         111.84235 111.41180 111.00194 110.65881 110.39254
           A10        112.31626 112.46045 112.50787 112.43142 112.27525
           A11        107.75607 107.88236 108.03475 108.19286 108.33225
           A12        107.77775 107.81262 107.80352 107.77635 107.73544
           A13        108.63286 108.61409 108.62031 108.61636 108.61454
           A14        112.58743 112.48574 112.33226 112.18695 112.10252
           A15        112.39917 112.20399 111.95010 111.66271 111.38820
           A16        106.23621 106.37976 106.60242 106.86555 107.10667
           A17        108.70851 108.67435 108.64320 108.62904 108.62263
           A18        108.41649 108.54827 108.66291 108.73128 108.74636
           A19        108.31851 108.39682 108.52437 108.66253 108.78761
           D1           9.88513  21.48248  32.10478  41.84862  50.96372
           D2         131.59122 142.25891 152.35141 161.96798 171.22408
           D3        -114.69456-104.69457 -94.69455 -84.69459 -74.69462
           D4         -59.88749 -61.46035 -64.68815 -67.85814 -70.35360
           D5          63.28819  61.44427  57.87019  54.36289  51.59852
           D6        -178.41149 179.82118 176.39911 173.06150 170.44286
           D7        -179.93998 177.73358 174.88850 172.59620 171.31032
           D8          61.44225  59.11523  56.18306  53.70934  52.20187
           D9         -61.01068 -63.10051 -65.77484 -67.94168 -69.14937
           D10         59.78359  58.78813  56.81526  54.92569  53.66170
           D11        -58.83418 -59.83022 -61.89018 -63.96118 -65.44675
           D12        178.71289 177.95404 176.15192 174.38780 173.20201
           D13        -56.60291 -57.34384 -59.49648 -61.91971 -63.89541
           D14       -175.22067-175.96220-178.20192 179.19342 176.99614
           D15         62.32639  61.82207  59.84018  57.54241  55.64490
                          36        37
     Eigenvalues --    -0.31343  -0.31368
           R1           1.41003   1.40955
           R2           1.40380   1.40367
           R3           1.51991   1.52055
           R4           1.08950   1.08935
           R5           1.09803   1.09775
           R6           1.08961   1.08980
           R7           1.09004   1.08962
           R8           1.08915   1.08927
           R9           1.09338   1.09368
           R10          1.09668   1.09628
           R11          1.08742   1.08741
           A1         114.05116 113.89618
           A2         114.12441 113.51926
           A3         105.16694 105.52759
           A4         109.47231 109.54554
           A5         109.85588 110.04500
           A6         110.59567 110.21299
           A7         107.28495 107.74661
           A8         109.67298 109.91101
           A9         110.23251 110.13739
           A10        112.09459 111.91329
           A11        108.44256 108.51569
           A12        107.68636 107.68685
           A13        108.60973 108.58178
           A14        112.08995 112.15339
           A15        111.18775 111.06355
           A16        107.26582 107.33522
           A17        108.62518 108.63363
           A18        108.70749 108.64032
           A19        108.88589 108.93738
           D1          59.85788  68.97221
           D2        -179.67877-170.43766
           D3         -64.69457 -54.69456
           D4         -71.45726 -69.94618
           D5          50.34481  51.82247
           D6         169.29258 170.80460
           D7         171.55422 173.10422
           D8          52.22484  53.59493
           D9         -68.88515 -67.29191
           D10         53.74602  55.09759
           D11        -65.58336 -64.41171
           D12        173.30665 174.70145
           D13        -64.49492 -63.59385
           D14        176.17570 176.89686
           D15         55.06571  56.01002
 Largest change from initial coordinates is atom    9       0.001 Angstoms.
 GradGradGradGradGradGradGradGradGradGradGradGradGradGradGradGradGradGrad

 Leave Link  103 at Mon Mar 11 00:43:24 2019, MaxMem=   671088640 cpu:               0.6 elap:               0.1
 (Enter /shared/centos7/gaussian/g16/l202.exe)
                          Input orientation:                          
 ---------------------------------------------------------------------
 Center     Atomic      Atomic             Coordinates (Angstroms)
 Number     Number       Type             X           Y           Z
 ---------------------------------------------------------------------
      1          8           0        1.017243    0.131609    0.602850
      2          6           0       -0.366686    0.131055    0.870399
      3          6           0       -1.147936   -0.861619    0.024037
      4          6           0        1.352070    0.645403   -0.659765
      5          1           0       -0.459625   -0.123460    1.925512
      6          1           0       -0.767531    1.143850    0.733939
      7          1           0       -2.183744   -0.901736    0.360425
      8          1           0       -0.714850   -1.857066    0.117857
      9          1           0       -1.152515   -0.582912   -1.028965
     10          1           0        1.042214   -0.019474   -1.470981
     11          1           0        0.894638    1.628906   -0.818879
     12          1           0        2.433974    0.750279   -0.690386
 ---------------------------------------------------------------------
                    Distance matrix (angstroms):
                    1          2          3          4          5
     1  O    0.000000
     2  C    1.409554   0.000000
     3  C    2.451433   1.520552   0.000000
     4  C    1.403671   2.357982   2.998121   0.000000
     5  H    1.998908   1.089348   2.152732   3.249161   0.000000
     6  H    2.056024   1.097748   2.161151   2.585260   1.766558
     7  H    3.372372   2.151379   1.089801   3.992044   2.455157
     8  H    2.681453   2.154104   1.089625   3.337546   2.517567
     9  H    2.807349   2.175973   1.089271   2.813897   3.069222
    10  H    2.079477   2.736735   2.782273   1.093684   3.715171
    11  H    2.068392   2.586147   3.329464   1.096284   3.526542
    12  H    2.015524   3.265453   3.992329   1.087406   3.997406
                    6          7          8          9         10
     6  H    0.000000
     7  H    2.515869   0.000000
     8  H    3.063957   1.768940   0.000000
     9  H    2.497549   1.759400   1.769243   0.000000
    10  H    3.080612   3.813036   2.998070   2.308609   0.000000
    11  H    2.325796   4.155881   3.952206   3.021111   1.778812
    12  H    3.526079   5.015644   4.167325   3.841216   1.771679
                   11         12
    11  H    0.000000
    12  H    1.777090   0.000000
 Stoichiometry    C3H8O
 Framework group  C1[X(C3H8O)]
 Deg. of freedom    30
 Full point group                 C1      NOp   1
 RotChk:  IX=0 Diff= 9.98D-16
 Largest Abelian subgroup         C1      NOp   1
 Largest concise Abelian subgroup C1      NOp   1
                         Standard orientation:                         
 ---------------------------------------------------------------------
 Center     Atomic      Atomic             Coordinates (Angstroms)
 Number     Number       Type             X           Y           Z
 ---------------------------------------------------------------------
      1          8           0        0.664388   -0.566746   -0.378236
      2          6           0       -0.597804   -0.637789    0.245195
      3          6           0       -1.506808    0.534238   -0.089685
      4          6           0        1.483647    0.462177    0.112094
      5          1           0       -1.043846   -1.568070   -0.104522
      6          1           0       -0.466576   -0.717509    1.332152
      7          1           0       -2.501695    0.361219    0.320109
      8          1           0       -1.592256    0.645913   -1.170199
      9          1           0       -1.135028    1.469214    0.327580
     10          1           0        1.118244    1.452353   -0.174573
     11          1           0        1.558474    0.419297    1.204980
     12          1           0        2.473370    0.319795   -0.315255
 ---------------------------------------------------------------------
 Rotational constants (GHZ):          15.6901141           5.3464135           4.5772600
 Leave Link  202 at Mon Mar 11 00:43:24 2019, MaxMem=   671088640 cpu:               0.2 elap:               0.0
 (Enter /shared/centos7/gaussian/g16/l601.exe)
 Copying SCF densities to generalized density rwf, IOpCl= 0 IROHF=0.

 **********************************************************************

            Population analysis using the SCF density.

 **********************************************************************

 Orbital symmetries:
       Occupied  (A) (A) (A) (A) (A) (A) (A) (A) (A) (A) (A) (A)
                 (A) (A) (A) (A) (A)
       Virtual   (A) (A) (A) (A) (A) (A) (A) (A) (A) (A) (A) (A)
                 (A) (A) (A) (A) (A) (A) (A) (A) (A) (A) (A) (A)
                 (A) (A) (A) (A) (A) (A) (A) (A) (A) (A) (A) (A)
                 (A) (A) (A) (A) (A) (A) (A) (A) (A) (A) (A) (A)
                 (A) (A) (A) (A) (A) (A) (A) (A) (A) (A) (A) (A)
                 (A) (A) (A) (A) (A) (A) (A) (A) (A) (A) (A) (A)
                 (A) (A) (A) (A) (A) (A) (A) (A) (A) (A) (A) (A)
                 (A) (A) (A) (A) (A) (A) (A) (A) (A) (A) (A) (A)
                 (A) (A) (A) (A) (A) (A) (A) (A) (A) (A) (A) (A)
                 (A) (A) (A) (A) (A) (A) (A) (A) (A) (A) (A) (A)
                 (A) (A) (A) (A) (A) (A) (A) (A) (A) (A) (A) (A)
                 (A) (A) (A) (A) (A) (A) (A) (A) (A) (A) (A) (A)
                 (A) (A) (A) (A) (A) (A) (A) (A) (A) (A) (A) (A)
                 (A) (A) (A) (A) (A) (A) (A) (A) (A) (A) (A) (A)
                 (A) (A) (A) (A) (A) (A) (A) (A) (A) (A) (A) (A)
                 (A) (A) (A) (A) (A) (A) (A) (A) (A) (A) (A)
 The electronic state is 1-A.
 Alpha  occ. eigenvalues --  -19.62041 -10.57929 -10.57286 -10.52469  -1.15738
 Alpha  occ. eigenvalues --   -0.85666  -0.78095  -0.68584  -0.56220  -0.56154
 Alpha  occ. eigenvalues --   -0.52756  -0.48040  -0.46144  -0.44019  -0.41801
 Alpha  occ. eigenvalues --   -0.37875  -0.32900
 Alpha virt. eigenvalues --    0.01655   0.03266   0.03566   0.04385   0.06415
 Alpha virt. eigenvalues --    0.07082   0.07439   0.08087   0.08809   0.10808
 Alpha virt. eigenvalues --    0.11166   0.13663   0.17448   0.18606   0.19828
 Alpha virt. eigenvalues --    0.21457   0.23137   0.24145   0.24778   0.25970
 Alpha virt. eigenvalues --    0.26820   0.26978   0.29675   0.30482   0.32807
 Alpha virt. eigenvalues --    0.33019   0.35076   0.41483   0.42956   0.44441
 Alpha virt. eigenvalues --    0.46416   0.50707   0.51282   0.53096   0.54166
 Alpha virt. eigenvalues --    0.54936   0.56178   0.56854   0.58572   0.60000
 Alpha virt. eigenvalues --    0.60512   0.62595   0.65410   0.67647   0.68625
 Alpha virt. eigenvalues --    0.69831   0.71074   0.79932   0.81140   0.84711
 Alpha virt. eigenvalues --    0.86171   0.89394   0.90772   0.94994   0.97738
 Alpha virt. eigenvalues --    1.00588   1.05409   1.06628   1.09188   1.10489
 Alpha virt. eigenvalues --    1.12358   1.13739   1.15635   1.16600   1.18633
 Alpha virt. eigenvalues --    1.20571   1.22478   1.22784   1.25254   1.28157
 Alpha virt. eigenvalues --    1.30133   1.30778   1.33020   1.35371   1.36106
 Alpha virt. eigenvalues --    1.40932   1.41714   1.44317   1.44954   1.47493
 Alpha virt. eigenvalues --    1.48601   1.49667   1.52387   1.54503   1.56268
 Alpha virt. eigenvalues --    1.61360   1.62420   1.63697   1.67543   1.76772
 Alpha virt. eigenvalues --    2.00575   2.07848   2.11237   2.23120   2.33610
 Alpha virt. eigenvalues --    2.39825   2.43537   2.47684   2.51599   2.57485
 Alpha virt. eigenvalues --    2.59160   2.61423   2.67290   2.85327   2.85803
 Alpha virt. eigenvalues --    2.88188   2.96977   2.99094   3.02005   3.06455
 Alpha virt. eigenvalues --    3.07682   3.10347   3.11009   3.14645   3.14858
 Alpha virt. eigenvalues --    3.15575   3.20169   3.23184   3.25661   3.29688
 Alpha virt. eigenvalues --    3.33338   3.34609   3.37280   3.41325   3.42453
 Alpha virt. eigenvalues --    3.47370   3.49509   3.51073   3.57428   3.57907
 Alpha virt. eigenvalues --    3.61094   3.62757   3.69271   3.75045   3.76103
 Alpha virt. eigenvalues --    3.82971   3.85948   3.86897   3.87887   3.90542
 Alpha virt. eigenvalues --    3.95233   3.97630   3.99408   4.00213   4.03602
 Alpha virt. eigenvalues --    4.11457   4.13618   4.17008   4.20095   4.21353
 Alpha virt. eigenvalues --    4.22092   4.26059   4.27413   4.30283   4.35911
 Alpha virt. eigenvalues --    4.39170   4.40658   4.42848   4.48814   4.49457
 Alpha virt. eigenvalues --    4.52913   4.56396   4.56747   4.62477   4.90812
 Alpha virt. eigenvalues --    5.09748   5.23684   5.27166   5.28381   5.41757
 Alpha virt. eigenvalues --    5.48908   5.52303   5.54672   5.58954   5.61142
 Alpha virt. eigenvalues --    5.62633   5.71063   5.82347   5.90560   6.24285
 Alpha virt. eigenvalues --    6.46967   6.71596   7.19006   7.21379   7.32707
 Alpha virt. eigenvalues --    7.67000   7.74934  24.34029  24.44045  24.47698
 Alpha virt. eigenvalues --   50.16832
          Condensed to atoms (all electrons):
               1          2          3          4          5          6
     1  O    8.218996   0.170794  -0.098858   0.130982  -0.060882  -0.037599
     2  C    0.170794   5.170060   0.194618  -0.117317   0.444025   0.458895
     3  C   -0.098858   0.194618   5.124150   0.013857  -0.036083  -0.061827
     4  C    0.130982  -0.117317   0.013857   4.973574   0.007636  -0.011118
     5  H   -0.060882   0.444025  -0.036083   0.007636   0.534842  -0.028381
     6  H   -0.037599   0.458895  -0.061827  -0.011118  -0.028381   0.540474
     7  H    0.008987  -0.032099   0.412717   0.000161  -0.005420  -0.001283
     8  H   -0.000119  -0.042081   0.427810  -0.002490  -0.005986   0.005839
     9  H   -0.006096  -0.029473   0.402880   0.003165   0.006523  -0.008623
    10  H   -0.044982  -0.006468  -0.001868   0.437169  -0.000788  -0.001389
    11  H   -0.050938   0.007227  -0.001418   0.419616   0.000517   0.006395
    12  H   -0.054907   0.006776   0.000575   0.433013  -0.000002   0.000122
               7          8          9         10         11         12
     1  O    0.008987  -0.000119  -0.006096  -0.044982  -0.050938  -0.054907
     2  C   -0.032099  -0.042081  -0.029473  -0.006468   0.007227   0.006776
     3  C    0.412717   0.427810   0.402880  -0.001868  -0.001418   0.000575
     4  C    0.000161  -0.002490   0.003165   0.437169   0.419616   0.433013
     5  H   -0.005420  -0.005986   0.006523  -0.000788   0.000517  -0.000002
     6  H   -0.001283   0.005839  -0.008623  -0.001389   0.006395   0.000122
     7  H    0.537767  -0.023631  -0.027995  -0.000006  -0.000013   0.000034
     8  H   -0.023631   0.522994  -0.034571   0.000464   0.000165  -0.000144
     9  H   -0.027995  -0.034571   0.569356  -0.003620  -0.001086   0.000392
    10  H   -0.000006   0.000464  -0.003620   0.582485  -0.054701  -0.029567
    11  H   -0.000013   0.000165  -0.001086  -0.054701   0.583024  -0.022048
    12  H    0.000034  -0.000144   0.000392  -0.029567  -0.022048   0.531325
 Mulliken charges:
               1
     1  O   -0.175380
     2  C   -0.224955
     3  C   -0.376552
     4  C   -0.288248
     5  H    0.144000
     6  H    0.138495
     7  H    0.130783
     8  H    0.151749
     9  H    0.129147
    10  H    0.123271
    11  H    0.113259
    12  H    0.134433
 Sum of Mulliken charges =  -0.00000
 Mulliken charges with hydrogens summed into heavy atoms:
               1
     1  O   -0.175380
     2  C    0.057539
     3  C    0.035126
     4  C    0.082714
 Electronic spatial extent (au):  <R**2>=            331.8028
 Charge=             -0.0000 electrons
 Dipole moment (field-independent basis, Debye):
    X=             -0.5125    Y=              0.8914    Z=              0.9366  Tot=              1.3909
 Quadrupole moment (field-independent basis, Debye-Ang):
   XX=            -25.0426   YY=            -27.2347   ZZ=            -27.3373
   XY=              1.9429   XZ=              0.5947   YZ=             -0.6785
 Traceless Quadrupole moment (field-independent basis, Debye-Ang):
   XX=              1.4956   YY=             -0.6965   ZZ=             -0.7991
   XY=              1.9429   XZ=              0.5947   YZ=             -0.6785
 Octapole moment (field-independent basis, Debye-Ang**2):
  XXX=              5.9857  YYY=             -2.0253  ZZZ=             -0.6845  XYY=             -0.5372
  XXY=             -0.4352  XXZ=             -0.6636  XZZ=              0.4826  YZZ=             -0.4586
  YYZ=             -0.3611  XYZ=             -0.6066
 Hexadecapole moment (field-independent basis, Debye-Ang**3):
 XXXX=           -274.9302 YYYY=           -101.9463 ZZZZ=            -57.4044 XXXY=              1.8552
 XXXZ=             -5.9951 YYYX=              2.3994 YYYZ=              1.5507 ZZZX=              1.5520
 ZZZY=             -0.5944 XXYY=            -68.1150 XXZZ=            -57.7009 YYZZ=            -27.9700
 XXYZ=              0.1322 YYXZ=              0.3357 ZZXY=             -0.1488
 N-N= 1.357041577320D+02 E-N=-7.246946662249D+02  KE= 1.935611767848D+02
 No NMR shielding tensors so no spin-rotation constants.
 Leave Link  601 at Mon Mar 11 00:43:25 2019, MaxMem=   671088640 cpu:               4.1 elap:               0.3
 (Enter /shared/centos7/gaussian/g16/l9999.exe)
 1\1\GINC-C0246\Scan\RM062X\6-311+G(2df,2p)\C3H8O1\UNDERKOFFLER.C\11-Ma
 r-2019\0\\#p m062x/6-311+g(2df,2p) Opt=(CalcFC,ModRedun)\\Gaussian Inp
 ut Prepared from Scan Object\\0,1\O,1.0172429713,0.1316085583,0.602849
 9684\C,-0.3666864363,0.1310553609,0.8703987269\C,-1.1479356158,-0.8616
 185594,0.0240372713\C,1.3520700445,0.6454034721,-0.6597653317\H,-0.459
 6252299,-0.1234598097,1.9255116603\H,-0.7675308929,1.1438504915,0.7339
 387591\H,-2.1837444939,-0.9017359375,0.3604254916\H,-0.7148497626,-1.8
 570664255,0.1178573367\H,-1.1525154651,-0.5829120447,-1.0289648929\H,1
 .0422136016,-0.019474409,-1.4709811133\H,0.8946382659,1.6289060234,-0.
 8188790379\H,2.4339738475,0.7502790779,-0.6903857617\\Version=EM64L-G1
 6RevA.03\State=1-A\HF=-194.3136774,-194.3135287,-194.3131326,-194.3124
 824,-194.3117987,-194.3114027,-194.3115103,-194.3121471,-194.3131343,-
 194.3142079,-194.315082,-194.3155307,-194.3154511,-194.3148633,-194.31
 39074,-194.3128244,-194.3119042,-194.3114149,-194.3114979,-194.3120525
 ,-194.3127812,-194.3133469,-194.3136337,-194.3136234,-194.3130908,-194
 .3119429,-194.3103307,-194.3085791,-194.3070865,-194.3062987,-194.3066
 456,-194.3078893,-194.3095521,-194.3112381,-194.3126081,-194.3134335,-
 194.3136774\RMSD=3.354e-09,3.335e-09,4.573e-09,4.843e-09,7.843e-09,9.8
 19e-09,2.646e-09,4.203e-09,7.345e-09,5.337e-09,5.847e-09,5.925e-09,6.7
 50e-09,5.965e-09,8.585e-09,9.875e-09,5.910e-09,4.453e-09,3.256e-09,8.8
 26e-09,3.218e-09,7.523e-09,9.709e-09,4.746e-09,3.019e-09,5.234e-09,4.7
 53e-09,9.004e-09,6.614e-09,5.140e-09,7.389e-09,8.618e-09,5.112e-09,5.7
 89e-09,3.920e-09,7.787e-09,5.398e-09\PG=C01 [X(C3H8O1)]\\@


 THE CHYMISTS ARE A STRANGE CLASS OF MORTALS IMPELLED
 BY AN ALMOST INSANE IMPULSE TO SEEK THEIR PLEASURE
 AMONG SMOKE AND VAPOR, SOOT AND FLAME, POISONS AND
 POVERTY; YET AMONG ALL THESE EVILS I SEEM TO LIVE
 SO SWEETLY, THAT I MAY DIE IF I WOULD CHANGE PLACES
 WITH THE PERSIAN KING.
   --  JOHANN JOACHIM BECHER, 1635-1682
 ACTA LABORATORII CHYMICA MONACENSIS, 1669
 Job cpu time:       0 days 10 hours  8 minutes  4.5 seconds.
 Elapsed time:       0 days  0 hours 38 minutes  4.9 seconds.
 File lengths (MBytes):  RWF=   1312 Int=      0 D2E=      0 Chk=     32 Scr=     32
 Normal termination of Gaussian 16 at Mon Mar 11 00:43:25 2019.
