 Entering Gaussian System, Link 0=g16
 Input=VSQGJBCHGBRHMO-UHFFFAOYSA-N_GeoFreq_c1_a1.com
 Output=VSQGJBCHGBRHMO-UHFFFAOYSA-N_GeoFreq_c1_a1.log
 Initial command:
 /shared/centos7/gaussian/g16/l1.exe "/scratch/underkoffler.c/gaussian_scratch/Gau-30566.inp" -scrdir="/scratch/underkoffler.c/gaussian_scratch/"
 Entering Link 1 = /shared/centos7/gaussian/g16/l1.exe PID=     30567.
  
 Copyright (c) 1988,1990,1992,1993,1995,1998,2003,2009,2016,
            Gaussian, Inc.  All Rights Reserved.
  
 This is part of the Gaussian(R) 16 program.  It is based on
 the Gaussian(R) 09 system (copyright 2009, Gaussian, Inc.),
 the Gaussian(R) 03 system (copyright 2003, Gaussian, Inc.),
 the Gaussian(R) 98 system (copyright 1998, Gaussian, Inc.),
 the Gaussian(R) 94 system (copyright 1995, Gaussian, Inc.),
 the Gaussian 92(TM) system (copyright 1992, Gaussian, Inc.),
 the Gaussian 90(TM) system (copyright 1990, Gaussian, Inc.),
 the Gaussian 88(TM) system (copyright 1988, Gaussian, Inc.),
 the Gaussian 86(TM) system (copyright 1986, Carnegie Mellon
 University), and the Gaussian 82(TM) system (copyright 1983,
 Carnegie Mellon University). Gaussian is a federally registered
 trademark of Gaussian, Inc.
  
 This software contains proprietary and confidential information,
 including trade secrets, belonging to Gaussian, Inc.
  
 This software is provided under written license and may be
 used, copied, transmitted, or stored only in accord with that
 written license.
  
 The following legend is applicable only to US Government
 contracts under FAR:
  
                    RESTRICTED RIGHTS LEGEND
  
 Use, reproduction and disclosure by the US Government is
 subject to restrictions as set forth in subparagraphs (a)
 and (c) of the Commercial Computer Software - Restricted
 Rights clause in FAR 52.227-19.
  
 Gaussian, Inc.
 340 Quinnipiac St., Bldg. 40, Wallingford CT 06492
  
  
 ---------------------------------------------------------------
 Warning -- This program may not be used in any manner that
 competes with the business of Gaussian, Inc. or will provide
 assistance to any competitor of Gaussian, Inc.  The licensee
 of this program is prohibited from giving any competitor of
 Gaussian, Inc. access to this program.  By using this program,
 the user acknowledges that Gaussian, Inc. is engaged in the
 business of creating and licensing software in the field of
 computational chemistry and represents and warrants to the
 licensee that it is not a competitor of Gaussian, Inc. and that
 it will not use this program in any manner prohibited above.
 ---------------------------------------------------------------
  

 Cite this work as:
 Gaussian 16, Revision A.03,
 M. J. Frisch, G. W. Trucks, H. B. Schlegel, G. E. Scuseria, 
 M. A. Robb, J. R. Cheeseman, G. Scalmani, V. Barone, 
 G. A. Petersson, H. Nakatsuji, X. Li, M. Caricato, A. V. Marenich, 
 J. Bloino, B. G. Janesko, R. Gomperts, B. Mennucci, H. P. Hratchian, 
 J. V. Ortiz, A. F. Izmaylov, J. L. Sonnenberg, D. Williams-Young, 
 F. Ding, F. Lipparini, F. Egidi, J. Goings, B. Peng, A. Petrone, 
 T. Henderson, D. Ranasinghe, V. G. Zakrzewski, J. Gao, N. Rega, 
 G. Zheng, W. Liang, M. Hada, M. Ehara, K. Toyota, R. Fukuda, 
 J. Hasegawa, M. Ishida, T. Nakajima, Y. Honda, O. Kitao, H. Nakai, 
 T. Vreven, K. Throssell, J. A. Montgomery, Jr., J. E. Peralta, 
 F. Ogliaro, M. J. Bearpark, J. J. Heyd, E. N. Brothers, K. N. Kudin, 
 V. N. Staroverov, T. A. Keith, R. Kobayashi, J. Normand, 
 K. Raghavachari, A. P. Rendell, J. C. Burant, S. S. Iyengar, 
 J. Tomasi, M. Cossi, J. M. Millam, M. Klene, C. Adamo, R. Cammi, 
 J. W. Ochterski, R. L. Martin, K. Morokuma, O. Farkas, 
 J. B. Foresman, and D. J. Fox, Gaussian, Inc., Wallingford CT, 2016.
 
 ******************************************
 Gaussian 16:  EM64L-G16RevA.03 25-Dec-2016
                 9-Apr-2019 
 ******************************************
 %nprocshared=20
 Will use up to   20 processors via shared memory.
 %mem=5GB
 ----------------------------------------------------------------------
 #p m062x/6-311+g(2df,2p) opt=(calcfc,verytight,gdiis,maxcycles=900) fr
 eq iop(7/33=1,2/16=3)
 ----------------------------------------------------------------------

 Warning!  Use of Opt=GDIIS is deprecated since it is seldom a good choice.

 1/6=900,7=1,10=4,18=20,19=11,26=3,38=1/1,3;
 2/9=110,12=2,16=3,17=6,18=5,40=1/2;
 3/5=4,6=6,7=214,11=2,25=1,30=1,71=2,74=-55,140=1/1,2,3;
 4//1;
 5/5=2,38=5/2;
 8/6=4,10=90,11=11/1;
 11/6=1,8=1,9=11,15=111,16=1/1,2,10;
 10/6=1,13=1/2;
 6/7=2,8=2,9=2,10=2,28=1/1;
 7/10=1,18=20,25=1,33=1/1,2,3,16;
 1/6=900,7=1,10=4,18=20,19=11,26=3/3(2);
 2/9=110,16=3/2;
 99//99;
 2/9=110,16=3/2;
 3/5=4,6=6,7=214,11=2,25=1,30=1,71=1,74=-55/1,2,3;
 4/5=5,16=3,69=1/1;
 5/5=2,38=5/2;
 7/33=1/1,2,3,16;
 1/6=900,7=1,18=20,19=11,26=3/3(-5);
 2/9=110,16=3/2;
 6/7=2,8=2,9=2,10=2,19=2,28=1/1;
 99/9=1/99;
 Leave Link    1 at Tue Apr  9 01:37:00 2019, MaxMem=   671088640 cpu:              28.1 elap:               1.5
 (Enter /shared/centos7/gaussian/g16/l101.exe)
 ------------------------------
 Gaussian input prepared by ASE
 ------------------------------
 Symbolic Z-matrix:
 Charge =  0 Multiplicity = 2
 O                    -0.94899  -0.37728   0.54411 
 C                    -0.51172  -0.00259  -1.88488 
 C                     1.18442  -1.18252  -0.2719 
 C                    -2.17715   0.2153    0.22244 
 C                    -0.01891  -0.31632  -0.47709 
 H                    -1.1365   -0.8257   -2.29781 
 H                    -1.12828   0.90482  -1.89673 
 H                     0.35427   0.15369  -2.57919 
 H                     1.31579  -1.91506  -1.10144 
 H                     1.10051  -1.74751   0.66985 
 H                     2.12228  -0.59977  -0.22876 
 H                    -2.74824  -0.40997  -0.50724 
 H                    -2.76385   0.29974   1.14495 
 H                    -2.03409   1.22846  -0.21686 
 
 ITRead=  0  0  0  0  0  0  0  0  0  0  0  0  0  0
 MicOpt= -1 -1 -1 -1 -1 -1 -1 -1 -1 -1 -1 -1 -1 -1
 NAtoms=     14 NQM=       14 NQMF=       0 NMMI=      0 NMMIF=      0
                NMic=       0 NMicF=      0.
                    Isotopes and Nuclear Properties:
 (Nuclear quadrupole moments (NQMom) in fm**2, nuclear magnetic moments (NMagM)
  in nuclear magnetons)

  Atom         1           2           3           4           5           6           7           8           9          10
 IAtWgt=          16          12          12          12          12           1           1           1           1           1
 AtmWgt=  15.9949146  12.0000000  12.0000000  12.0000000  12.0000000   1.0078250   1.0078250   1.0078250   1.0078250   1.0078250
 NucSpn=           0           0           0           0           0           1           1           1           1           1
 AtZEff=  -0.0000000  -0.0000000  -0.0000000  -0.0000000  -0.0000000  -0.0000000  -0.0000000  -0.0000000  -0.0000000  -0.0000000
 NQMom=    0.0000000   0.0000000   0.0000000   0.0000000   0.0000000   0.0000000   0.0000000   0.0000000   0.0000000   0.0000000
 NMagM=    0.0000000   0.0000000   0.0000000   0.0000000   0.0000000   2.7928460   2.7928460   2.7928460   2.7928460   2.7928460
 AtZNuc=   8.0000000   6.0000000   6.0000000   6.0000000   6.0000000   1.0000000   1.0000000   1.0000000   1.0000000   1.0000000

  Atom        11          12          13          14
 IAtWgt=           1           1           1           1
 AtmWgt=   1.0078250   1.0078250   1.0078250   1.0078250
 NucSpn=           1           1           1           1
 AtZEff=  -0.0000000  -0.0000000  -0.0000000  -0.0000000
 NQMom=    0.0000000   0.0000000   0.0000000   0.0000000
 NMagM=    2.7928460   2.7928460   2.7928460   2.7928460
 AtZNuc=   1.0000000   1.0000000   1.0000000   1.0000000
 Leave Link  101 at Tue Apr  9 01:37:01 2019, MaxMem=   671088640 cpu:               5.6 elap:               0.3
 (Enter /shared/centos7/gaussian/g16/l103.exe)

 GradGradGradGradGradGradGradGradGradGradGradGradGradGradGradGradGradGrad
 Berny optimization.
 Initialization pass.
                           ----------------------------
                           !    Initial Parameters    !
                           ! (Angstroms and Degrees)  !
 --------------------------                            --------------------------
 ! Name  Definition              Value          Derivative Info.                !
 --------------------------------------------------------------------------------
 ! R1    R(1,4)                  1.4011         calculate D2E/DX2 analytically  !
 ! R2    R(1,5)                  1.3826         calculate D2E/DX2 analytically  !
 ! R3    R(2,5)                  1.5242         calculate D2E/DX2 analytically  !
 ! R4    R(2,6)                  1.1128         calculate D2E/DX2 analytically  !
 ! R5    R(2,7)                  1.0971         calculate D2E/DX2 analytically  !
 ! R6    R(2,8)                  1.1209         calculate D2E/DX2 analytically  !
 ! R7    R(3,5)                  1.4968         calculate D2E/DX2 analytically  !
 ! R8    R(3,9)                  1.1145         calculate D2E/DX2 analytically  !
 ! R9    R(3,10)                 1.1014         calculate D2E/DX2 analytically  !
 ! R10   R(3,11)                 1.105          calculate D2E/DX2 analytically  !
 ! R11   R(4,12)                 1.1178         calculate D2E/DX2 analytically  !
 ! R12   R(4,13)                 1.0965         calculate D2E/DX2 analytically  !
 ! R13   R(4,14)                 1.1135         calculate D2E/DX2 analytically  !
 ! A1    A(4,1,5)              113.6696         calculate D2E/DX2 analytically  !
 ! A2    A(5,2,6)              111.8399         calculate D2E/DX2 analytically  !
 ! A3    A(5,2,7)              111.2186         calculate D2E/DX2 analytically  !
 ! A4    A(5,2,8)              110.549          calculate D2E/DX2 analytically  !
 ! A5    A(6,2,7)              106.9923         calculate D2E/DX2 analytically  !
 ! A6    A(6,2,8)              107.8805         calculate D2E/DX2 analytically  !
 ! A7    A(7,2,8)              108.1894         calculate D2E/DX2 analytically  !
 ! A8    A(5,3,9)              111.9073         calculate D2E/DX2 analytically  !
 ! A9    A(5,3,10)             110.6594         calculate D2E/DX2 analytically  !
 ! A10   A(5,3,11)             112.4881         calculate D2E/DX2 analytically  !
 ! A11   A(9,3,10)             107.9539         calculate D2E/DX2 analytically  !
 ! A12   A(9,3,11)             106.0017         calculate D2E/DX2 analytically  !
 ! A13   A(10,3,11)            107.5653         calculate D2E/DX2 analytically  !
 ! A14   A(1,4,12)             111.17           calculate D2E/DX2 analytically  !
 ! A15   A(1,4,13)             107.9655         calculate D2E/DX2 analytically  !
 ! A16   A(1,4,14)             111.2712         calculate D2E/DX2 analytically  !
 ! A17   A(12,4,13)            108.5957         calculate D2E/DX2 analytically  !
 ! A18   A(12,4,14)            108.4847         calculate D2E/DX2 analytically  !
 ! A19   A(13,4,14)            109.3034         calculate D2E/DX2 analytically  !
 ! A20   A(1,5,2)              118.2787         calculate D2E/DX2 analytically  !
 ! A21   A(1,5,3)              114.459          calculate D2E/DX2 analytically  !
 ! A22   A(2,5,3)              120.3759         calculate D2E/DX2 analytically  !
 ! D1    D(5,1,4,12)            72.3627         calculate D2E/DX2 analytically  !
 ! D2    D(5,1,4,13)          -168.6203         calculate D2E/DX2 analytically  !
 ! D3    D(5,1,4,14)           -48.6763         calculate D2E/DX2 analytically  !
 ! D4    D(4,1,5,2)            -16.6541         calculate D2E/DX2 analytically  !
 ! D5    D(4,1,5,3)           -167.7596         calculate D2E/DX2 analytically  !
 ! D6    D(6,2,5,1)            -67.5279         calculate D2E/DX2 analytically  !
 ! D7    D(6,2,5,3)             81.8203         calculate D2E/DX2 analytically  !
 ! D8    D(7,2,5,1)             52.0324         calculate D2E/DX2 analytically  !
 ! D9    D(7,2,5,3)           -158.6194         calculate D2E/DX2 analytically  !
 ! D10   D(8,2,5,1)            172.2413         calculate D2E/DX2 analytically  !
 ! D11   D(8,2,5,3)            -38.4106         calculate D2E/DX2 analytically  !
 ! D12   D(9,3,5,1)            121.8463         calculate D2E/DX2 analytically  !
 ! D13   D(9,3,5,2)            -28.5999         calculate D2E/DX2 analytically  !
 ! D14   D(10,3,5,1)             1.4015         calculate D2E/DX2 analytically  !
 ! D15   D(10,3,5,2)          -149.0448         calculate D2E/DX2 analytically  !
 ! D16   D(11,3,5,1)          -118.9411         calculate D2E/DX2 analytically  !
 ! D17   D(11,3,5,2)            90.6126         calculate D2E/DX2 analytically  !
 --------------------------------------------------------------------------------
 Trust Radius=3.00D-01 FncErr=1.00D-07 GrdErr=1.00D-06 EigMax=2.50D+02 EigMin=1.00D-04
 Number of steps in this run=    100 maximum allowed number of steps=    100.
 GradGradGradGradGradGradGradGradGradGradGradGradGradGradGradGradGradGrad

 Leave Link  103 at Tue Apr  9 01:37:01 2019, MaxMem=   671088640 cpu:               0.1 elap:               0.0
 (Enter /shared/centos7/gaussian/g16/l202.exe)
                          Input orientation:                          
 ---------------------------------------------------------------------
 Center     Atomic      Atomic             Coordinates (Angstroms)
 Number     Number       Type             X           Y           Z
 ---------------------------------------------------------------------
      1          8           0       -0.948991   -0.377277    0.544105
      2          6           0       -0.511725   -0.002592   -1.884877
      3          6           0        1.184424   -1.182520   -0.271903
      4          6           0       -2.177145    0.215295    0.222441
      5          6           0       -0.018906   -0.316321   -0.477094
      6          1           0       -1.136495   -0.825703   -2.297813
      7          1           0       -1.128277    0.904818   -1.896733
      8          1           0        0.354272    0.153695   -2.579189
      9          1           0        1.315789   -1.915057   -1.101444
     10          1           0        1.100511   -1.747505    0.669855
     11          1           0        2.122282   -0.599772   -0.228755
     12          1           0       -2.748242   -0.409968   -0.507239
     13          1           0       -2.763847    0.299737    1.144945
     14          1           0       -2.034090    1.228464   -0.216860
 ---------------------------------------------------------------------
                    Distance matrix (angstroms):
                    1          2          3          4          5
     1  O    0.000000
     2  C    2.496306   0.000000
     3  C    2.421930   2.621228   0.000000
     4  C    1.401062   2.694789   3.674019   0.000000
     5  C    1.382614   1.524188   1.496799   2.330228   0.000000
     6  H    2.883183   1.112819   3.101338   2.918614   2.196246
     7  H    2.762898   1.097119   3.513637   2.463020   2.176525
     8  H    3.425696   1.120913   2.792524   3.776374   2.186088
     9  H    3.194030   2.758822   1.114454   4.300194   2.174208
    10  H    2.468561   3.488650   1.101434   3.846530   2.148691
    11  H    3.174828   3.168178   1.105004   4.399203   2.174097
    12  H    2.084154   2.658167   4.014733   1.117827   2.731109
    13  H    2.028068   3.787252   4.448977   1.096523   3.247344
    14  H    2.082046   2.572038   4.021779   1.113536   2.552460
                    6          7          8          9         10
     6  H    0.000000
     7  H    1.776411   0.000000
     8  H    1.805763   1.796631   0.000000
     9  H    2.937974   3.815448   2.718084   0.000000
    10  H    3.828964   4.311576   3.837671   1.792183   0.000000
    11  H    3.866739   3.951212   3.036134   1.772566   1.780114
    12  H    2.444733   2.506719   3.773100   4.374325   4.241161
    13  H    3.970828   3.506140   4.859338   5.157035   4.398883
    14  H    3.058700   1.935774   3.527039   4.678238   4.412299
                   11         12         13         14
    11  H    0.000000
    12  H    4.882169   0.000000
    13  H    5.154651   1.798232   0.000000
    14  H    4.540707   1.810744   1.802662   0.000000
 Stoichiometry    C4H9O(2)
 Framework group  C1[X(C4H9O)]
 Deg. of freedom    36
 Full point group                 C1      NOp   1
 Largest Abelian subgroup         C1      NOp   1
 Largest concise Abelian subgroup C1      NOp   1
                         Standard orientation:                         
 ---------------------------------------------------------------------
 Center     Atomic      Atomic             Coordinates (Angstroms)
 Number     Number       Type             X           Y           Z
 ---------------------------------------------------------------------
      1          8           0        0.590131   -0.869558   -0.001662
      2          6           0       -0.240418    1.484458    0.016909
      3          6           0       -1.817290   -0.609212    0.046189
      4          6           0        1.837232   -0.231688    0.027231
      5          6           0       -0.470479   -0.005979   -0.204045
      6          1           0       -0.055229    1.720363    1.088552
      7          1           0        0.632635    1.839061   -0.544968
      8          1           0       -1.133769    2.074050   -0.315882
      9          1           0       -2.384077   -0.051584    0.827092
     10          1           0       -1.719107   -1.654463    0.379307
     11          1           0       -2.456335   -0.605126   -0.855275
     12          1           0        1.969004    0.354681    0.969752
     13          1           0        2.613638   -1.004845   -0.015019
     14          1           0        1.957924    0.458849   -0.837960
 ---------------------------------------------------------------------
 Rotational constants (GHZ):           7.8968073           4.0230780           2.8246866
 Leave Link  202 at Tue Apr  9 01:37:01 2019, MaxMem=   671088640 cpu:               0.1 elap:               0.0
 (Enter /shared/centos7/gaussian/g16/l301.exe)
 Standard basis: 6-311+G(2df,2p) (5D, 7F)
 Ernie: Thresh=  0.10000D-02 Tol=  0.10000D-05 Strict=F.
 There are   276 symmetry adapted cartesian basis functions of A   symmetry.
 There are   251 symmetry adapted basis functions of A   symmetry.
   251 basis functions,   359 primitive gaussians,   276 cartesian basis functions
    21 alpha electrons       20 beta electrons
       nuclear repulsion energy       186.5537477285 Hartrees.
 IExCor= 4336 DFT=T Ex+Corr=M062X ExCW=0 ScaHFX=  0.540000
 ScaDFX=  1.000000  1.000000  1.000000  1.000000 ScalE2=  1.000000  1.000000
 IRadAn=      5 IRanWt=     -1 IRanGd=            0 ICorTp=0 IEmpDi=  4
 NAtoms=   14 NActive=   14 NUniq=   14 SFac= 1.00D+00 NAtFMM=   60 NAOKFM=F Big=F
 Integral buffers will be    131072 words long.
 Raffenetti 2 integral format.
 Two-electron integral symmetry is turned on.
 Leave Link  301 at Tue Apr  9 01:37:01 2019, MaxMem=   671088640 cpu:               0.8 elap:               0.1
 (Enter /shared/centos7/gaussian/g16/l302.exe)
 NPDir=0 NMtPBC=     1 NCelOv=     1 NCel=       1 NClECP=     1 NCelD=      1
         NCelK=      1 NCelE2=     1 NClLst=     1 CellRange=     0.0.
 One-electron integrals computed using PRISM.
 One-electron integral symmetry used in STVInt
 NBasis=   251 RedAO= T EigKep=  5.11D-05  NBF=   251
 NBsUse=   251 1.00D-06 EigRej= -1.00D+00 NBFU=   251
 Precomputing XC quadrature grid using
 IXCGrd= 4 IRadAn=           5 IRanWt=          -1 IRanGd=           0 AccXCQ= 0.00D+00.
 Generated NRdTot=       0 NPtTot=           0 NUsed=           0 NTot=          32
 NSgBfM=   276   276   276   276   276 MxSgAt=    14 MxSgA2=    14.
 Leave Link  302 at Tue Apr  9 01:37:01 2019, MaxMem=   671088640 cpu:               5.7 elap:               0.3
 (Enter /shared/centos7/gaussian/g16/l303.exe)
 DipDrv:  MaxL=1.
 Leave Link  303 at Tue Apr  9 01:37:01 2019, MaxMem=   671088640 cpu:               0.5 elap:               0.0
 (Enter /shared/centos7/gaussian/g16/l401.exe)
 ExpMin= 4.38D-02 ExpMax= 8.59D+03 ExpMxC= 1.30D+03 IAcc=3 IRadAn=         5 AccDes= 0.00D+00
 Harris functional with IExCor= 1009 and IRadAn=       5 diagonalized for initial guess.
 HarFok:  IExCor= 1009 AccDes= 0.00D+00 IRadAn=         5 IDoV= 1 UseB2=F ITyADJ=14
 ICtDFT=  3500011 ScaDFX=  1.000000  1.000000  1.000000  1.000000
 FoFCou: FMM=F IPFlag=           0 FMFlag=      100000 FMFlg1=           0
         NFxFlg=           0 DoJE=T BraDBF=F KetDBF=T FulRan=T
         wScrn=  0.000000 ICntrl=       500 IOpCl=  0 I1Cent=   200000004 NGrid=           0
         NMat0=    1 NMatS0=      1 NMatT0=    0 NMatD0=    1 NMtDS0=    0 NMtDT0=    0
 Petite list used in FoFCou.
 Harris En= -232.878351981815    
 JPrj=0 DoOrth=F DoCkMO=F.
 Initial guess <Sx>= 0.0000 <Sy>= 0.0000 <Sz>= 0.5000 <S**2>= 0.7500 S= 0.5000
 Leave Link  401 at Tue Apr  9 01:37:02 2019, MaxMem=   671088640 cpu:              21.1 elap:               1.1
 (Enter /shared/centos7/gaussian/g16/l502.exe)
 Integral symmetry usage will be decided dynamically.
 UHF open shell SCF:
 Using DIIS extrapolation, IDIIS=  1040.
 NGot=   671088640 LenX=   670928170 LenY=   670851553
 Requested convergence on RMS density matrix=1.00D-08 within 128 cycles.
 Requested convergence on MAX density matrix=1.00D-06.
 Requested convergence on             energy=1.00D-06.
 No special actions if energy rises.
 Fock matrices will be formed incrementally for  20 cycles.

 Cycle   1  Pass 1  IDiag  1:
 FoFJK:  IHMeth= 1 ICntrl=       0 DoSepK=F KAlg= 0 I1Cent=           0 FoldK=F
 IRaf= 980000000 NMat=       1 IRICut=       1 DoRegI=T DoRafI=F ISym2E= 0 IDoP0=0 IntGTp=1.
 FoFCou: FMM=F IPFlag=           0 FMFlag=      100000 FMFlg1=           0
         NFxFlg=           0 DoJE=F BraDBF=F KetDBF=F FulRan=T
         wScrn=  0.000000 ICntrl=         0 IOpCl=  1 I1Cent=           0 NGrid=           0
         NMat0=    1 NMatS0=      1 NMatT0=    0 NMatD0=    1 NMtDS0=    0 NMtDT0=    0
 Symmetry not used in FoFCou.
 E= -232.780962013651    
 DIIS: error= 2.70D-02 at cycle   1 NSaved=   1.
 NSaved= 1 IEnMin= 1 EnMin= -232.780962013651     IErMin= 1 ErrMin= 2.70D-02
 ErrMax= 2.70D-02  0.00D+00 EMaxC= 1.00D-01 BMatC= 8.25D-01 BMatP= 8.25D-01
 IDIUse=3 WtCom= 7.30D-01 WtEn= 2.70D-01
 Coeff-Com:  0.100D+01
 Coeff-En:   0.100D+01
 Coeff:      0.100D+01
 Gap=     0.191 Goal=   None    Shift=    0.000
 Gap=     0.400 Goal=   None    Shift=    0.000
 GapD=    0.191 DampG=1.000 DampE=0.500 DampFc=0.5000 IDamp=-1.
 Damping current iteration by 5.00D-01
 RMSDP=3.06D-03 MaxDP=1.52D-01              OVMax= 1.48D-01

 Cycle   2  Pass 1  IDiag  1:
 RMSU=  1.52D-03    CP:  9.82D-01
 E= -232.873869171623     Delta-E=       -0.092907157972 Rises=F Damp=T
 DIIS: error= 4.98D-03 at cycle   2 NSaved=   2.
 NSaved= 2 IEnMin= 2 EnMin= -232.873869171623     IErMin= 2 ErrMin= 4.98D-03
 ErrMax= 4.98D-03  0.00D+00 EMaxC= 1.00D-01 BMatC= 5.54D-02 BMatP= 8.25D-01
 IDIUse=3 WtCom= 9.50D-01 WtEn= 4.98D-02
 Coeff-Com: -0.155D+00 0.116D+01
 Coeff-En:   0.000D+00 0.100D+01
 Coeff:     -0.147D+00 0.115D+01
 Gap=     0.224 Goal=   None    Shift=    0.000
 Gap=     0.408 Goal=   None    Shift=    0.000
 RMSDP=1.18D-03 MaxDP=8.12D-02 DE=-9.29D-02 OVMax= 7.34D-02

 Cycle   3  Pass 1  IDiag  1:
 RMSU=  1.07D-03    CP:  9.76D-01  6.83D-01
 E= -232.957052244963     Delta-E=       -0.083183073340 Rises=F Damp=F
 DIIS: error= 2.29D-03 at cycle   3 NSaved=   3.
 NSaved= 3 IEnMin= 3 EnMin= -232.957052244963     IErMin= 3 ErrMin= 2.29D-03
 ErrMax= 2.29D-03  0.00D+00 EMaxC= 1.00D-01 BMatC= 3.81D-03 BMatP= 5.54D-02
 IDIUse=3 WtCom= 9.77D-01 WtEn= 2.29D-02
 Coeff-Com: -0.629D-01 0.187D+00 0.876D+00
 Coeff-En:   0.000D+00 0.000D+00 0.100D+01
 Coeff:     -0.615D-01 0.183D+00 0.878D+00
 Gap=     0.213 Goal=   None    Shift=    0.000
 Gap=     0.370 Goal=   None    Shift=    0.000
 RMSDP=1.58D-04 MaxDP=1.02D-02 DE=-8.32D-02 OVMax= 1.24D-02

 Cycle   4  Pass 1  IDiag  1:
 RMSU=  1.44D-04    CP:  9.73D-01  6.96D-01  1.05D+00
 E= -232.958056641393     Delta-E=       -0.001004396430 Rises=F Damp=F
 DIIS: error= 9.05D-04 at cycle   4 NSaved=   4.
 NSaved= 4 IEnMin= 4 EnMin= -232.958056641393     IErMin= 4 ErrMin= 9.05D-04
 ErrMax= 9.05D-04  0.00D+00 EMaxC= 1.00D-01 BMatC= 6.21D-04 BMatP= 3.81D-03
 IDIUse=3 WtCom= 9.91D-01 WtEn= 9.05D-03
 Coeff-Com: -0.160D-01 0.324D-01 0.310D+00 0.674D+00
 Coeff-En:   0.000D+00 0.000D+00 0.000D+00 0.100D+01
 Coeff:     -0.159D-01 0.321D-01 0.307D+00 0.677D+00
 Gap=     0.219 Goal=   None    Shift=    0.000
 Gap=     0.370 Goal=   None    Shift=    0.000
 RMSDP=1.02D-04 MaxDP=7.70D-03 DE=-1.00D-03 OVMax= 5.55D-03

 Cycle   5  Pass 1  IDiag  1:
 RMSU=  6.48D-05    CP:  9.73D-01  6.54D-01  1.09D+00  1.04D+00
 E= -232.958232889690     Delta-E=       -0.000176248296 Rises=F Damp=F
 DIIS: error= 2.99D-04 at cycle   5 NSaved=   5.
 NSaved= 5 IEnMin= 5 EnMin= -232.958232889690     IErMin= 5 ErrMin= 2.99D-04
 ErrMax= 2.99D-04  0.00D+00 EMaxC= 1.00D-01 BMatC= 1.08D-04 BMatP= 6.21D-04
 IDIUse=3 WtCom= 9.97D-01 WtEn= 2.99D-03
 Coeff-Com:  0.424D-02-0.177D-01-0.277D-01 0.207D+00 0.834D+00
 Coeff-En:   0.000D+00 0.000D+00 0.000D+00 0.000D+00 0.100D+01
 Coeff:      0.423D-02-0.176D-01-0.276D-01 0.206D+00 0.835D+00
 Gap=     0.219 Goal=   None    Shift=    0.000
 Gap=     0.370 Goal=   None    Shift=    0.000
 RMSDP=4.88D-05 MaxDP=4.24D-03 DE=-1.76D-04 OVMax= 4.09D-03

 Cycle   6  Pass 1  IDiag  1:
 RMSU=  2.38D-05    CP:  9.73D-01  6.38D-01  1.11D+00  1.18D+00  1.27D+00
 E= -232.958283026709     Delta-E=       -0.000050137019 Rises=F Damp=F
 DIIS: error= 1.87D-04 at cycle   6 NSaved=   6.
 NSaved= 6 IEnMin= 6 EnMin= -232.958283026709     IErMin= 6 ErrMin= 1.87D-04
 ErrMax= 1.87D-04  0.00D+00 EMaxC= 1.00D-01 BMatC= 2.05D-05 BMatP= 1.08D-04
 IDIUse=3 WtCom= 9.98D-01 WtEn= 1.87D-03
 Coeff-Com:  0.461D-02-0.103D-01-0.870D-01-0.129D+00 0.178D+00 0.104D+01
 Coeff-En:   0.000D+00 0.000D+00 0.000D+00 0.000D+00 0.000D+00 0.100D+01
 Coeff:      0.461D-02-0.102D-01-0.869D-01-0.128D+00 0.177D+00 0.104D+01
 Gap=     0.220 Goal=   None    Shift=    0.000
 Gap=     0.371 Goal=   None    Shift=    0.000
 RMSDP=4.05D-05 MaxDP=3.50D-03 DE=-5.01D-05 OVMax= 4.30D-03

 Cycle   7  Pass 1  IDiag  1:
 RMSU=  1.17D-05    CP:  9.73D-01  6.23D-01  1.13D+00  1.29D+00  1.58D+00
                    CP:  1.35D+00
 E= -232.958298813550     Delta-E=       -0.000015786841 Rises=F Damp=F
 DIIS: error= 7.81D-05 at cycle   7 NSaved=   7.
 NSaved= 7 IEnMin= 7 EnMin= -232.958298813550     IErMin= 7 ErrMin= 7.81D-05
 ErrMax= 7.81D-05  0.00D+00 EMaxC= 1.00D-01 BMatC= 8.26D-06 BMatP= 2.05D-05
 IDIUse=1 WtCom= 1.00D+00 WtEn= 0.00D+00
 Coeff-Com:  0.136D-02-0.203D-02-0.405D-01-0.103D+00-0.661D-01 0.543D+00
 Coeff-Com:  0.667D+00
 Coeff:      0.136D-02-0.203D-02-0.405D-01-0.103D+00-0.661D-01 0.543D+00
 Coeff:      0.667D+00
 Gap=     0.220 Goal=   None    Shift=    0.000
 Gap=     0.371 Goal=   None    Shift=    0.000
 RMSDP=1.41D-05 MaxDP=1.00D-03 DE=-1.58D-05 OVMax= 9.97D-04

 Cycle   8  Pass 1  IDiag  1:
 RMSU=  4.52D-06    CP:  9.73D-01  6.18D-01  1.13D+00  1.31D+00  1.68D+00
                    CP:  1.60D+00  1.17D+00
 E= -232.958301512417     Delta-E=       -0.000002698868 Rises=F Damp=F
 DIIS: error= 2.94D-05 at cycle   8 NSaved=   8.
 NSaved= 8 IEnMin= 8 EnMin= -232.958301512417     IErMin= 8 ErrMin= 2.94D-05
 ErrMax= 2.94D-05  0.00D+00 EMaxC= 1.00D-01 BMatC= 4.20D-07 BMatP= 8.26D-06
 IDIUse=1 WtCom= 1.00D+00 WtEn= 0.00D+00
 Coeff-Com: -0.919D-03 0.216D-02 0.125D-01 0.143D-01-0.372D-01-0.121D+00
 Coeff-Com:  0.620D-01 0.107D+01
 Coeff:     -0.919D-03 0.216D-02 0.125D-01 0.143D-01-0.372D-01-0.121D+00
 Coeff:      0.620D-01 0.107D+01
 Gap=     0.220 Goal=   None    Shift=    0.000
 Gap=     0.371 Goal=   None    Shift=    0.000
 RMSDP=3.94D-06 MaxDP=2.46D-04 DE=-2.70D-06 OVMax= 5.83D-04

 Cycle   9  Pass 1  IDiag  1:
 RMSU=  2.26D-06    CP:  9.73D-01  6.19D-01  1.13D+00  1.31D+00  1.68D+00
                    CP:  1.67D+00  1.33D+00  1.25D+00
 E= -232.958301808107     Delta-E=       -0.000000295690 Rises=F Damp=F
 DIIS: error= 7.87D-06 at cycle   9 NSaved=   9.
 NSaved= 9 IEnMin= 9 EnMin= -232.958301808107     IErMin= 9 ErrMin= 7.87D-06
 ErrMax= 7.87D-06  0.00D+00 EMaxC= 1.00D-01 BMatC= 6.03D-08 BMatP= 4.20D-07
 IDIUse=1 WtCom= 1.00D+00 WtEn= 0.00D+00
 Coeff-Com: -0.299D-03 0.613D-03 0.691D-02 0.142D-01 0.238D-03-0.871D-01
 Coeff-Com: -0.742D-01 0.215D+00 0.925D+00
 Coeff:     -0.299D-03 0.613D-03 0.691D-02 0.142D-01 0.238D-03-0.871D-01
 Coeff:     -0.742D-01 0.215D+00 0.925D+00
 Gap=     0.220 Goal=   None    Shift=    0.000
 Gap=     0.371 Goal=   None    Shift=    0.000
 RMSDP=1.38D-06 MaxDP=6.30D-05 DE=-2.96D-07 OVMax= 1.62D-04

 Cycle  10  Pass 1  IDiag  1:
 RMSU=  6.70D-07    CP:  9.73D-01  6.19D-01  1.13D+00  1.31D+00  1.69D+00
                    CP:  1.69D+00  1.39D+00  1.36D+00  1.16D+00
 E= -232.958301840414     Delta-E=       -0.000000032307 Rises=F Damp=F
 DIIS: error= 1.79D-06 at cycle  10 NSaved=  10.
 NSaved=10 IEnMin=10 EnMin= -232.958301840414     IErMin=10 ErrMin= 1.79D-06
 ErrMax= 1.79D-06  0.00D+00 EMaxC= 1.00D-01 BMatC= 6.96D-09 BMatP= 6.03D-08
 IDIUse=1 WtCom= 1.00D+00 WtEn= 0.00D+00
 Coeff-Com:  0.464D-04-0.112D-03 0.240D-03 0.165D-02 0.329D-02-0.484D-02
 Coeff-Com: -0.254D-01-0.602D-01 0.199D+00 0.887D+00
 Coeff:      0.464D-04-0.112D-03 0.240D-03 0.165D-02 0.329D-02-0.484D-02
 Coeff:     -0.254D-01-0.602D-01 0.199D+00 0.887D+00
 Gap=     0.220 Goal=   None    Shift=    0.000
 Gap=     0.371 Goal=   None    Shift=    0.000
 RMSDP=3.31D-07 MaxDP=1.68D-05 DE=-3.23D-08 OVMax= 4.27D-05

 Cycle  11  Pass 1  IDiag  1:
 RMSU=  1.89D-07    CP:  9.73D-01  6.19D-01  1.13D+00  1.31D+00  1.69D+00
                    CP:  1.69D+00  1.40D+00  1.37D+00  1.25D+00  1.16D+00
 E= -232.958301843281     Delta-E=       -0.000000002866 Rises=F Damp=F
 DIIS: error= 1.06D-06 at cycle  11 NSaved=  11.
 NSaved=11 IEnMin=11 EnMin= -232.958301843281     IErMin=11 ErrMin= 1.06D-06
 ErrMax= 1.06D-06  0.00D+00 EMaxC= 1.00D-01 BMatC= 1.24D-09 BMatP= 6.96D-09
 IDIUse=1 WtCom= 1.00D+00 WtEn= 0.00D+00
 Coeff-Com:  0.543D-04-0.117D-03-0.797D-03-0.123D-02 0.882D-03 0.101D-01
 Coeff-Com: -0.323D-03-0.479D-01-0.599D-01 0.293D+00 0.806D+00
 Coeff:      0.543D-04-0.117D-03-0.797D-03-0.123D-02 0.882D-03 0.101D-01
 Coeff:     -0.323D-03-0.479D-01-0.599D-01 0.293D+00 0.806D+00
 Gap=     0.220 Goal=   None    Shift=    0.000
 Gap=     0.371 Goal=   None    Shift=    0.000
 RMSDP=1.18D-07 MaxDP=4.09D-06 DE=-2.87D-09 OVMax= 1.04D-05

 Cycle  12  Pass 1  IDiag  1:
 RMSU=  8.58D-08    CP:  9.73D-01  6.19D-01  1.13D+00  1.31D+00  1.69D+00
                    CP:  1.69D+00  1.40D+00  1.38D+00  1.25D+00  1.23D+00
                    CP:  1.16D+00
 E= -232.958301843709     Delta-E=       -0.000000000428 Rises=F Damp=F
 DIIS: error= 2.72D-07 at cycle  12 NSaved=  12.
 NSaved=12 IEnMin=12 EnMin= -232.958301843709     IErMin=12 ErrMin= 2.72D-07
 ErrMax= 2.72D-07  0.00D+00 EMaxC= 1.00D-01 BMatC= 7.16D-11 BMatP= 1.24D-09
 IDIUse=1 WtCom= 1.00D+00 WtEn= 0.00D+00
 Coeff-Com:  0.408D-06-0.179D-05-0.104D-03-0.246D-03-0.139D-03 0.158D-02
 Coeff-Com:  0.162D-02-0.576D-03-0.251D-01-0.436D-01 0.119D+00 0.948D+00
 Coeff:      0.408D-06-0.179D-05-0.104D-03-0.246D-03-0.139D-03 0.158D-02
 Coeff:      0.162D-02-0.576D-03-0.251D-01-0.436D-01 0.119D+00 0.948D+00
 Gap=     0.220 Goal=   None    Shift=    0.000
 Gap=     0.371 Goal=   None    Shift=    0.000
 RMSDP=6.20D-08 MaxDP=5.23D-06 DE=-4.28D-10 OVMax= 2.17D-06

 Cycle  13  Pass 1  IDiag  1:
 RMSU=  2.93D-08    CP:  9.73D-01  6.19D-01  1.13D+00  1.31D+00  1.69D+00
                    CP:  1.69D+00  1.40D+00  1.38D+00  1.25D+00  1.25D+00
                    CP:  1.29D+00  1.19D+00
 E= -232.958301843741     Delta-E=       -0.000000000032 Rises=F Damp=F
 DIIS: error= 6.71D-08 at cycle  13 NSaved=  13.
 NSaved=13 IEnMin=13 EnMin= -232.958301843741     IErMin=13 ErrMin= 6.71D-08
 ErrMax= 6.71D-08  0.00D+00 EMaxC= 1.00D-01 BMatC= 6.37D-12 BMatP= 7.16D-11
 IDIUse=1 WtCom= 1.00D+00 WtEn= 0.00D+00
 Coeff-Com: -0.493D-05 0.103D-04 0.555D-04 0.784D-04-0.601D-04-0.719D-03
 Coeff-Com:  0.240D-03 0.427D-02 0.233D-02-0.323D-01-0.613D-01 0.115D+00
 Coeff-Com:  0.973D+00
 Coeff:     -0.493D-05 0.103D-04 0.555D-04 0.784D-04-0.601D-04-0.719D-03
 Coeff:      0.240D-03 0.427D-02 0.233D-02-0.323D-01-0.613D-01 0.115D+00
 Coeff:      0.973D+00
 Gap=     0.220 Goal=   None    Shift=    0.000
 Gap=     0.371 Goal=   None    Shift=    0.000
 RMSDP=1.74D-08 MaxDP=9.69D-07 DE=-3.22D-11 OVMax= 1.09D-06

 Cycle  14  Pass 1  IDiag  1:
 RMSU=  7.79D-09    CP:  9.73D-01  6.19D-01  1.13D+00  1.31D+00  1.69D+00
                    CP:  1.69D+00  1.40D+00  1.38D+00  1.25D+00  1.25D+00
                    CP:  1.32D+00  1.31D+00  1.12D+00
 E= -232.958301843743     Delta-E=       -0.000000000002 Rises=F Damp=F
 DIIS: error= 2.07D-08 at cycle  14 NSaved=  14.
 NSaved=14 IEnMin=14 EnMin= -232.958301843743     IErMin=14 ErrMin= 2.07D-08
 ErrMax= 2.07D-08  0.00D+00 EMaxC= 1.00D-01 BMatC= 4.77D-13 BMatP= 6.37D-12
 IDIUse=1 WtCom= 1.00D+00 WtEn= 0.00D+00
 Coeff-Com:  0.151D-06-0.727D-07 0.480D-05 0.861D-05 0.589D-05-0.836D-04
 Coeff-Com: -0.912D-04 0.127D-03 0.140D-02 0.313D-02-0.103D-01-0.769D-01
 Coeff-Com:  0.268D-01 0.106D+01
 Coeff:      0.151D-06-0.727D-07 0.480D-05 0.861D-05 0.589D-05-0.836D-04
 Coeff:     -0.912D-04 0.127D-03 0.140D-02 0.313D-02-0.103D-01-0.769D-01
 Coeff:      0.268D-01 0.106D+01
 Gap=     0.220 Goal=   None    Shift=    0.000
 Gap=     0.371 Goal=   None    Shift=    0.000
 RMSDP=4.95D-09 MaxDP=2.70D-07 DE=-2.33D-12 OVMax= 3.40D-07

 SCF Done:  E(UM062X) =  -232.958301844     A.U. after   14 cycles
            NFock= 14  Conv=0.50D-08     -V/T= 2.0050
 <Sx>= 0.0000 <Sy>= 0.0000 <Sz>= 0.5000 <S**2>= 0.7548 S= 0.5024
 <L.S>= 0.000000000000E+00
 KE= 2.318063179902D+02 PE=-9.157616428406D+02 EE= 2.644432752782D+02
 Annihilation of the first spin contaminant:
 S**2 before annihilation     0.7548,   after     0.7500
 Leave Link  502 at Tue Apr  9 01:37:46 2019, MaxMem=   671088640 cpu:             866.4 elap:              43.4
 (Enter /shared/centos7/gaussian/g16/l801.exe)
 DoSCS=F DFT=T ScalE2(SS,OS)=  1.000000  1.000000
 Range of M.O.s used for correlation:     1   251
 NBasis=   251 NAE=    21 NBE=    20 NFC=     0 NFV=     0
 NROrb=    251 NOA=    21 NOB=    20 NVA=   230 NVB=   231

 **** Warning!!: The largest alpha MO coefficient is  0.52324668D+02


 **** Warning!!: The largest beta MO coefficient is  0.50005233D+02

 Leave Link  801 at Tue Apr  9 01:37:46 2019, MaxMem=   671088640 cpu:               0.3 elap:               0.0
 (Enter /shared/centos7/gaussian/g16/l1101.exe)
 Using compressed storage, NAtomX=    14.
 Will process     15 centers per pass.
 Leave Link 1101 at Tue Apr  9 01:37:46 2019, MaxMem=   671088640 cpu:               6.8 elap:               0.4
 (Enter /shared/centos7/gaussian/g16/l1102.exe)
 Symmetrizing basis deriv contribution to polar:
 IMax=3 JMax=2 DiffMx= 0.00D+00
 Leave Link 1102 at Tue Apr  9 01:37:46 2019, MaxMem=   671088640 cpu:               0.5 elap:               0.0
 (Enter /shared/centos7/gaussian/g16/l1110.exe)
 Forming Gx(P) for the SCF density, NAtomX=    14.
 Integral derivatives from FoFJK, PRISM(SPDF).
 Do as many integral derivatives as possible in FoFJK.
 G2DrvN: MDV=     671087496.
 G2DrvN: will do    15 centers at a time, making    1 passes.
 Calling FoFCou, ICntrl=  3107 FMM=F I1Cent=   0 AccDes= 0.00D+00.
 FoFJK:  IHMeth= 1 ICntrl=    3107 DoSepK=F KAlg= 0 I1Cent=           0 FoldK=F
 IRaf=         0 NMat=       1 IRICut=       1 DoRegI=T DoRafI=F ISym2E= 0 IDoP0=0 IntGTp=1.
 FoFCou: FMM=F IPFlag=           0 FMFlag=      100000 FMFlg1=           0
         NFxFlg=           0 DoJE=F BraDBF=F KetDBF=F FulRan=T
         wScrn=  0.000000 ICntrl=      3107 IOpCl=  1 I1Cent=           0 NGrid=           0
         NMat0=    1 NMatS0=      1 NMatT0=    0 NMatD0=    1 NMtDS0=    0 NMtDT0=    0
 Symmetry not used in FoFCou.
 End of G2Drv F.D. properties file   721 does not exist.
 End of G2Drv F.D. properties file   722 does not exist.
 End of G2Drv F.D. properties file   788 does not exist.
 Leave Link 1110 at Tue Apr  9 01:39:10 2019, MaxMem=   671088640 cpu:            1685.3 elap:              84.3
 (Enter /shared/centos7/gaussian/g16/l1002.exe)
 Minotr:  UHF open shell wavefunction.
          IDoAtm=11111111111111
          Direct CPHF calculation.
          Differentiating once with respect to nuclear coordinates.
          Requested convergence is 1.0D-08 RMS, and 1.0D-07 maximum.
          Secondary convergence is 1.0D-12 RMS, and 1.0D-12 maximum.
          NewPWx=T KeepS1=F KeepF1=F KeepIn=T MapXYZ=F SortEE=F KeepMc=T.
         4257 words used for storage of precomputed grid.
 Two-electron integrals replicated using symmetry.
          MDV=     671088640 using IRadAn=       1.
          Solving linear equations simultaneously, MaxMat=     380.
 FoF2E skips out because all densities are zero.
 CalDSu exits because no D1Ps are significant.
 FoFJK:  IHMeth= 1 ICntrl=       0 DoSepK=F KAlg= 0 I1Cent=           0 FoldK=F
 IRaf= 970000000 NMat=      42 IRICut=     105 DoRegI=T DoRafI=T ISym2E= 2 IDoP0=3 IntGTp=3.
 FoFCou: FMM=F IPFlag=           0 FMFlag=      100000 FMFlg1=           0
         NFxFlg=           0 DoJE=F BraDBF=F KetDBF=F FulRan=T
         wScrn=  0.000000 ICntrl=         0 IOpCl=  1 I1Cent=           0 NGrid=           0
         NMat0=   42 NMatS0=     42 NMatT0=    0 NMatD0=   42 NMtDS0=    0 NMtDT0=    0
 Integrals replicated using symmetry in FoFCou.
 Raff kept on since  95.90% of shell-pairs survive, threshold=   0.20 IRatSp=96.
          There are    45 degrees of freedom in the 1st order CPHF.  IDoFFX=6 NUNeed=     0.
     39 vectors produced by pass  0 Test12= 2.10D-14 2.22D-09 XBig12= 1.49D-01 5.36D-02.
 AX will form    39 AO Fock derivatives at one time.
     39 vectors produced by pass  1 Test12= 2.10D-14 2.22D-09 XBig12= 9.53D-03 1.75D-02.
     39 vectors produced by pass  2 Test12= 2.10D-14 2.22D-09 XBig12= 5.87D-04 4.01D-03.
     39 vectors produced by pass  3 Test12= 2.10D-14 2.22D-09 XBig12= 8.99D-06 3.88D-04.
     39 vectors produced by pass  4 Test12= 2.10D-14 2.22D-09 XBig12= 1.24D-07 5.89D-05.
     39 vectors produced by pass  5 Test12= 2.10D-14 2.22D-09 XBig12= 1.58D-09 4.49D-06.
     39 vectors produced by pass  6 Test12= 2.10D-14 2.22D-09 XBig12= 1.10D-11 3.20D-07.
     15 vectors produced by pass  7 Test12= 2.10D-14 2.22D-09 XBig12= 7.40D-14 2.43D-08.
 InvSVY:  IOpt=1 It=  1 EMax= 2.22D-15
 Solved reduced A of dimension   288 with    39 vectors.
 End of Minotr F.D. properties file   721 does not exist.
 End of Minotr F.D. properties file   722 does not exist.
 End of Minotr F.D. properties file   788 does not exist.
 Leave Link 1002 at Tue Apr  9 01:41:22 2019, MaxMem=   671088640 cpu:            2620.5 elap:             131.1
 (Enter /shared/centos7/gaussian/g16/l601.exe)
 Copying SCF densities to generalized density rwf, IOpCl= 1 IROHF=0.

 **********************************************************************

            Population analysis using the SCF density.

 **********************************************************************

 Orbital symmetries:
 Alpha Orbitals:
       Occupied  (A) (A) (A) (A) (A) (A) (A) (A) (A) (A) (A) (A)
                 (A) (A) (A) (A) (A) (A) (A) (A) (A)
       Virtual   (A) (A) (A) (A) (A) (A) (A) (A) (A) (A) (A) (A)
                 (A) (A) (A) (A) (A) (A) (A) (A) (A) (A) (A) (A)
                 (A) (A) (A) (A) (A) (A) (A) (A) (A) (A) (A) (A)
                 (A) (A) (A) (A) (A) (A) (A) (A) (A) (A) (A) (A)
                 (A) (A) (A) (A) (A) (A) (A) (A) (A) (A) (A) (A)
                 (A) (A) (A) (A) (A) (A) (A) (A) (A) (A) (A) (A)
                 (A) (A) (A) (A) (A) (A) (A) (A) (A) (A) (A) (A)
                 (A) (A) (A) (A) (A) (A) (A) (A) (A) (A) (A) (A)
                 (A) (A) (A) (A) (A) (A) (A) (A) (A) (A) (A) (A)
                 (A) (A) (A) (A) (A) (A) (A) (A) (A) (A) (A) (A)
                 (A) (A) (A) (A) (A) (A) (A) (A) (A) (A) (A) (A)
                 (A) (A) (A) (A) (A) (A) (A) (A) (A) (A) (A) (A)
                 (A) (A) (A) (A) (A) (A) (A) (A) (A) (A) (A) (A)
                 (A) (A) (A) (A) (A) (A) (A) (A) (A) (A) (A) (A)
                 (A) (A) (A) (A) (A) (A) (A) (A) (A) (A) (A) (A)
                 (A) (A) (A) (A) (A) (A) (A) (A) (A) (A) (A) (A)
                 (A) (A) (A) (A) (A) (A) (A) (A) (A) (A) (A) (A)
                 (A) (A) (A) (A) (A) (A) (A) (A) (A) (A) (A) (A)
                 (A) (A) (A) (A) (A) (A) (A) (A) (A) (A) (A) (A)
                 (A) (A)
 Beta  Orbitals:
       Occupied  (A) (A) (A) (A) (A) (A) (A) (A) (A) (A) (A) (A)
                 (A) (A) (A) (A) (A) (A) (A) (A)
       Virtual   (A) (A) (A) (A) (A) (A) (A) (A) (A) (A) (A) (A)
                 (A) (A) (A) (A) (A) (A) (A) (A) (A) (A) (A) (A)
                 (A) (A) (A) (A) (A) (A) (A) (A) (A) (A) (A) (A)
                 (A) (A) (A) (A) (A) (A) (A) (A) (A) (A) (A) (A)
                 (A) (A) (A) (A) (A) (A) (A) (A) (A) (A) (A) (A)
                 (A) (A) (A) (A) (A) (A) (A) (A) (A) (A) (A) (A)
                 (A) (A) (A) (A) (A) (A) (A) (A) (A) (A) (A) (A)
                 (A) (A) (A) (A) (A) (A) (A) (A) (A) (A) (A) (A)
                 (A) (A) (A) (A) (A) (A) (A) (A) (A) (A) (A) (A)
                 (A) (A) (A) (A) (A) (A) (A) (A) (A) (A) (A) (A)
                 (A) (A) (A) (A) (A) (A) (A) (A) (A) (A) (A) (A)
                 (A) (A) (A) (A) (A) (A) (A) (A) (A) (A) (A) (A)
                 (A) (A) (A) (A) (A) (A) (A) (A) (A) (A) (A) (A)
                 (A) (A) (A) (A) (A) (A) (A) (A) (A) (A) (A) (A)
                 (A) (A) (A) (A) (A) (A) (A) (A) (A) (A) (A) (A)
                 (A) (A) (A) (A) (A) (A) (A) (A) (A) (A) (A) (A)
                 (A) (A) (A) (A) (A) (A) (A) (A) (A) (A) (A) (A)
                 (A) (A) (A) (A) (A) (A) (A) (A) (A) (A) (A) (A)
                 (A) (A) (A) (A) (A) (A) (A) (A) (A) (A) (A) (A)
                 (A) (A) (A)
 The electronic state is 2-A.
 Alpha  occ. eigenvalues --  -19.64666 -10.58470 -10.58148 -10.53856 -10.52861
 Alpha  occ. eigenvalues --   -1.18347  -0.87285  -0.80255  -0.76740  -0.64017
 Alpha  occ. eigenvalues --   -0.55726  -0.55481  -0.54766  -0.48431  -0.45673
 Alpha  occ. eigenvalues --   -0.45316  -0.44398  -0.43370  -0.39537  -0.38841
 Alpha  occ. eigenvalues --   -0.20506
 Alpha virt. eigenvalues --    0.01488   0.02824   0.03554   0.04520   0.05388
 Alpha virt. eigenvalues --    0.06365   0.07448   0.07811   0.08148   0.09533
 Alpha virt. eigenvalues --    0.11861   0.12596   0.13194   0.13612   0.14397
 Alpha virt. eigenvalues --    0.15160   0.18370   0.19610   0.20253   0.21760
 Alpha virt. eigenvalues --    0.22271   0.23321   0.24856   0.25388   0.26467
 Alpha virt. eigenvalues --    0.28049   0.28572   0.29883   0.31452   0.32632
 Alpha virt. eigenvalues --    0.36152   0.37014   0.39277   0.41775   0.42733
 Alpha virt. eigenvalues --    0.44613   0.45178   0.46352   0.50268   0.50973
 Alpha virt. eigenvalues --    0.53376   0.53651   0.55301   0.56232   0.56731
 Alpha virt. eigenvalues --    0.57823   0.60063   0.60565   0.61420   0.63441
 Alpha virt. eigenvalues --    0.64870   0.65384   0.66702   0.67372   0.69866
 Alpha virt. eigenvalues --    0.71082   0.72225   0.78255   0.79097   0.80520
 Alpha virt. eigenvalues --    0.83000   0.86632   0.88927   0.90677   0.93870
 Alpha virt. eigenvalues --    0.96795   0.97953   1.00409   1.02478   1.04442
 Alpha virt. eigenvalues --    1.06643   1.08795   1.09778   1.11616   1.14016
 Alpha virt. eigenvalues --    1.15739   1.16356   1.17948   1.18627   1.20786
 Alpha virt. eigenvalues --    1.21562   1.23697   1.25050   1.26017   1.27380
 Alpha virt. eigenvalues --    1.29716   1.31130   1.33729   1.35557   1.36982
 Alpha virt. eigenvalues --    1.37313   1.39851   1.41575   1.43127   1.43940
 Alpha virt. eigenvalues --    1.45316   1.47768   1.48458   1.49177   1.52342
 Alpha virt. eigenvalues --    1.55949   1.58345   1.58689   1.61253   1.62385
 Alpha virt. eigenvalues --    1.64465   1.70506   1.72932   1.78253   1.99861
 Alpha virt. eigenvalues --    2.07893   2.18007   2.28972   2.33253   2.38224
 Alpha virt. eigenvalues --    2.42905   2.46828   2.50486   2.53804   2.56471
 Alpha virt. eigenvalues --    2.58976   2.70878   2.76055   2.78189   2.81228
 Alpha virt. eigenvalues --    2.86369   2.89542   2.90335   2.93951   2.96145
 Alpha virt. eigenvalues --    2.98421   3.02348   3.04193   3.05115   3.07781
 Alpha virt. eigenvalues --    3.09892   3.11159   3.13876   3.14021   3.16176
 Alpha virt. eigenvalues --    3.19220   3.20580   3.23093   3.26418   3.26572
 Alpha virt. eigenvalues --    3.28204   3.28490   3.33160   3.36726   3.37807
 Alpha virt. eigenvalues --    3.41416   3.41662   3.44013   3.48163   3.49608
 Alpha virt. eigenvalues --    3.50534   3.53851   3.56756   3.59067   3.61737
 Alpha virt. eigenvalues --    3.63453   3.65835   3.67335   3.74035   3.76529
 Alpha virt. eigenvalues --    3.77282   3.79530   3.82591   3.84292   3.86141
 Alpha virt. eigenvalues --    3.87061   3.88888   3.90611   3.93907   3.98716
 Alpha virt. eigenvalues --    4.03971   4.05246   4.09385   4.12591   4.13533
 Alpha virt. eigenvalues --    4.17851   4.19083   4.21798   4.22968   4.26104
 Alpha virt. eigenvalues --    4.28144   4.31041   4.33084   4.34157   4.36662
 Alpha virt. eigenvalues --    4.37680   4.40617   4.44312   4.49208   4.50617
 Alpha virt. eigenvalues --    4.52462   4.54983   4.59647   4.62631   4.69754
 Alpha virt. eigenvalues --    4.85026   4.91617   5.10458   5.21309   5.26187
 Alpha virt. eigenvalues --    5.28485   5.41196   5.47898   5.49846   5.54267
 Alpha virt. eigenvalues --    5.55603   5.57558   5.57869   5.62391   5.69935
 Alpha virt. eigenvalues --    5.80046   5.86981   6.28374   6.46297   6.75371
 Alpha virt. eigenvalues --    7.14620   7.26968   7.28992   7.70915   7.73537
 Alpha virt. eigenvalues --   24.23034  24.32117  24.39668  24.47244  50.21397
  Beta  occ. eigenvalues --  -19.64316 -10.58480 -10.57370 -10.53893 -10.52902
  Beta  occ. eigenvalues --   -1.17164  -0.85765  -0.79911  -0.76476  -0.62658
  Beta  occ. eigenvalues --   -0.54642  -0.54175  -0.53415  -0.46980  -0.45142
  Beta  occ. eigenvalues --   -0.44805  -0.44053  -0.42905  -0.38502  -0.36749
  Beta virt. eigenvalues --    0.00327   0.02344   0.03198   0.03724   0.04165
  Beta virt. eigenvalues --    0.05569   0.06324   0.07254   0.07794   0.08070
  Beta virt. eigenvalues --    0.09557   0.11481   0.11919   0.12634   0.13578
  Beta virt. eigenvalues --    0.13994   0.15253   0.18613   0.19209   0.20126
  Beta virt. eigenvalues --    0.21969   0.22733   0.23480   0.24853   0.25964
  Beta virt. eigenvalues --    0.26498   0.28364   0.29202   0.29843   0.31867
  Beta virt. eigenvalues --    0.33256   0.36510   0.37520   0.39321   0.41862
  Beta virt. eigenvalues --    0.42829   0.44804   0.45216   0.46520   0.50540
  Beta virt. eigenvalues --    0.51479   0.53398   0.54028   0.55409   0.56189
  Beta virt. eigenvalues --    0.56877   0.58070   0.59956   0.61613   0.62368
  Beta virt. eigenvalues --    0.63775   0.64724   0.65841   0.66627   0.67561
  Beta virt. eigenvalues --    0.69701   0.71122   0.72303   0.77741   0.79474
  Beta virt. eigenvalues --    0.80612   0.83066   0.86872   0.89026   0.90591
  Beta virt. eigenvalues --    0.93777   0.96744   0.98049   1.00306   1.02684
  Beta virt. eigenvalues --    1.04425   1.06800   1.08839   1.09742   1.11672
  Beta virt. eigenvalues --    1.14221   1.15830   1.16461   1.17874   1.18728
  Beta virt. eigenvalues --    1.20828   1.21710   1.24017   1.24921   1.26613
  Beta virt. eigenvalues --    1.27849   1.30212   1.31320   1.34143   1.35800
  Beta virt. eigenvalues --    1.37152   1.37545   1.40383   1.41477   1.43271
  Beta virt. eigenvalues --    1.44035   1.45254   1.47384   1.48251   1.49332
  Beta virt. eigenvalues --    1.52205   1.56050   1.58091   1.58681   1.61014
  Beta virt. eigenvalues --    1.62296   1.64659   1.71017   1.73295   1.78386
  Beta virt. eigenvalues --    2.00580   2.08439   2.18568   2.29421   2.33796
  Beta virt. eigenvalues --    2.38804   2.43482   2.47523   2.51296   2.54890
  Beta virt. eigenvalues --    2.56654   2.59341   2.72126   2.76608   2.80648
  Beta virt. eigenvalues --    2.83846   2.88505   2.91734   2.93141   2.95154
  Beta virt. eigenvalues --    2.97070   2.98556   3.02594   3.05036   3.05966
  Beta virt. eigenvalues --    3.08862   3.10345   3.11733   3.14019   3.14760
  Beta virt. eigenvalues --    3.16650   3.19505   3.20732   3.23225   3.26545
  Beta virt. eigenvalues --    3.26947   3.29085   3.29816   3.34880   3.37573
  Beta virt. eigenvalues --    3.38587   3.41872   3.43197   3.46459   3.48786
  Beta virt. eigenvalues --    3.50544   3.52076   3.54393   3.57038   3.60252
  Beta virt. eigenvalues --    3.63275   3.64752   3.67990   3.69153   3.75405
  Beta virt. eigenvalues --    3.78092   3.79670   3.79966   3.82730   3.84599
  Beta virt. eigenvalues --    3.86442   3.87629   3.88987   3.91223   3.94706
  Beta virt. eigenvalues --    3.99429   4.04737   4.06230   4.09898   4.13059
  Beta virt. eigenvalues --    4.13906   4.17899   4.19484   4.21874   4.23098
  Beta virt. eigenvalues --    4.26754   4.28447   4.31354   4.33381   4.34303
  Beta virt. eigenvalues --    4.36678   4.38057   4.41190   4.44808   4.49824
  Beta virt. eigenvalues --    4.52015   4.52951   4.56656   4.62803   4.63493
  Beta virt. eigenvalues --    4.71971   4.88102   4.91767   5.11271   5.22670
  Beta virt. eigenvalues --    5.26778   5.29116   5.43304   5.47937   5.49960
  Beta virt. eigenvalues --    5.53960   5.55466   5.57614   5.57912   5.62530
  Beta virt. eigenvalues --    5.70384   5.80373   5.87761   6.28726   6.46683
  Beta virt. eigenvalues --    6.75862   7.15278   7.27764   7.29821   7.71152
  Beta virt. eigenvalues --    7.73403  24.23514  24.32192  24.39645  24.48126
  Beta virt. eigenvalues --   50.21181
          Condensed to atoms (all electrons):
               1          2          3          4          5          6
     1  O    8.230801   0.006851  -0.169451   0.090452   0.111814   0.007170
     2  C    0.006851   5.280234  -0.069881  -0.057913   0.075267   0.443974
     3  C   -0.169451  -0.069881   5.284719   0.005220   0.174527  -0.001687
     4  C    0.090452  -0.057913   0.005220   5.017699  -0.072647  -0.007992
     5  C    0.111814   0.075267   0.174527  -0.072647   5.875851  -0.072454
     6  H    0.007170   0.443974  -0.001687  -0.007992  -0.072454   0.551620
     7  H   -0.002490   0.422432  -0.001918  -0.010072  -0.046676  -0.048717
     8  H    0.005324   0.397741   0.018344   0.001003  -0.049613  -0.028518
     9  H    0.007501   0.021005   0.397849   0.000543  -0.059441   0.001768
    10  H   -0.003058   0.001447   0.407709   0.004427  -0.023164   0.000063
    11  H    0.005934  -0.008103   0.433719  -0.001293  -0.062806  -0.000677
    12  H   -0.041423  -0.002674   0.009201   0.424064  -0.007101  -0.005569
    13  H   -0.059378  -0.002077   0.001993   0.429590   0.017752  -0.000020
    14  H   -0.041768  -0.015948  -0.013740   0.435942   0.007066   0.003168
               7          8          9         10         11         12
     1  O   -0.002490   0.005324   0.007501  -0.003058   0.005934  -0.041423
     2  C    0.422432   0.397741   0.021005   0.001447  -0.008103  -0.002674
     3  C   -0.001918   0.018344   0.397849   0.407709   0.433719   0.009201
     4  C   -0.010072   0.001003   0.000543   0.004427  -0.001293   0.424064
     5  C   -0.046676  -0.049613  -0.059441  -0.023164  -0.062806  -0.007101
     6  H   -0.048717  -0.028518   0.001768   0.000063  -0.000677  -0.005569
     7  H    0.566807  -0.016548  -0.000122  -0.000237   0.000459  -0.003307
     8  H   -0.016548   0.530792  -0.004468   0.000210   0.000945   0.000642
     9  H   -0.000122  -0.004468   0.576143  -0.023764  -0.041898  -0.000071
    10  H   -0.000237   0.000210  -0.023764   0.524745  -0.026494   0.000056
    11  H    0.000459   0.000945  -0.041898  -0.026494   0.558491   0.000045
    12  H   -0.003307   0.000642  -0.000071   0.000056   0.000045   0.569349
    13  H    0.000829   0.000022   0.000011  -0.000115   0.000015  -0.024383
    14  H   -0.006528  -0.000432   0.000094  -0.000002  -0.000150  -0.053227
              13         14
     1  O   -0.059378  -0.041768
     2  C   -0.002077  -0.015948
     3  C    0.001993  -0.013740
     4  C    0.429590   0.435942
     5  C    0.017752   0.007066
     6  H   -0.000020   0.003168
     7  H    0.000829  -0.006528
     8  H    0.000022  -0.000432
     9  H    0.000011   0.000094
    10  H   -0.000115  -0.000002
    11  H    0.000015  -0.000150
    12  H   -0.024383  -0.053227
    13  H    0.523334  -0.023758
    14  H   -0.023758   0.588590
          Atomic-Atomic Spin Densities.
               1          2          3          4          5          6
     1  O    0.242215   0.017181   0.022165   0.013316  -0.234462   0.008050
     2  C    0.017181  -0.026896   0.000353   0.006086  -0.062508   0.014226
     3  C    0.022165   0.000353   0.013506  -0.005644  -0.102666   0.004815
     4  C    0.013316   0.006086  -0.005644  -0.002168  -0.001013   0.001677
     5  C   -0.234462  -0.062508  -0.102666  -0.001013   1.375194  -0.036226
     6  H    0.008050   0.014226   0.004815   0.001677  -0.036226   0.081649
     7  H    0.002283   0.013197  -0.002735   0.002415  -0.027179  -0.017157
     8  H   -0.000370   0.001117   0.008328  -0.000990  -0.014036  -0.008621
     9  H    0.003033   0.000187  -0.009682   0.001674   0.001783   0.003749
    10  H    0.001081   0.000845  -0.011497   0.000871   0.007743   0.000150
    11  H    0.001494   0.001655   0.056228  -0.001607  -0.070840  -0.001130
    12  H   -0.004586  -0.003058   0.000032  -0.001984   0.008672  -0.005664
    13  H   -0.000648  -0.000477   0.000612  -0.000889   0.001592   0.000004
    14  H   -0.010109   0.000309  -0.002951   0.002372   0.014249   0.003251
               7          8          9         10         11         12
     1  O    0.002283  -0.000370   0.003033   0.001081   0.001494  -0.004586
     2  C    0.013197   0.001117   0.000187   0.000845   0.001655  -0.003058
     3  C   -0.002735   0.008328  -0.009682  -0.011497   0.056228   0.000032
     4  C    0.002415  -0.000990   0.001674   0.000871  -0.001607  -0.001984
     5  C   -0.027179  -0.014036   0.001783   0.007743  -0.070840   0.008672
     6  H   -0.017157  -0.008621   0.003749   0.000150  -0.001130  -0.005664
     7  H    0.039836   0.005632  -0.000676  -0.000045   0.000703   0.003525
     8  H    0.005632   0.014802  -0.001832  -0.000085   0.001505   0.000335
     9  H   -0.000676  -0.001832   0.038398   0.002958  -0.012849  -0.000206
    10  H   -0.000045  -0.000085   0.002958   0.004679  -0.003056  -0.000057
    11  H    0.000703   0.001505  -0.012849  -0.003056   0.052349   0.000101
    12  H    0.003525   0.000335  -0.000206  -0.000057   0.000101   0.011381
    13  H   -0.000039   0.000001   0.000003   0.000006  -0.000003   0.000217
    14  H   -0.007723  -0.000646   0.000156   0.000054  -0.000253  -0.005057
              13         14
     1  O   -0.000648  -0.010109
     2  C   -0.000477   0.000309
     3  C    0.000612  -0.002951
     4  C   -0.000889   0.002372
     5  C    0.001592   0.014249
     6  H    0.000004   0.003251
     7  H   -0.000039  -0.007723
     8  H    0.000001  -0.000646
     9  H    0.000003   0.000156
    10  H    0.000006   0.000054
    11  H   -0.000003  -0.000253
    12  H    0.000217  -0.005057
    13  H   -0.000743   0.000215
    14  H    0.000215   0.013897
 Mulliken charges and spin densities:
               1          2
     1  O   -0.148279   0.060645
     2  C   -0.492354  -0.037781
     3  C   -0.476606  -0.029137
     4  C   -0.259023   0.014116
     5  C    0.131626   0.860303
     6  H    0.157872   0.048773
     7  H    0.146090   0.012037
     8  H    0.144556   0.005141
     9  H    0.124849   0.026696
    10  H    0.138178   0.003646
    11  H    0.141815   0.024297
    12  H    0.134398   0.003651
    13  H    0.136186  -0.000148
    14  H    0.120693   0.007762
 Sum of Mulliken charges =  -0.00000   1.00000
 Mulliken charges and spin densities with hydrogens summed into heavy atoms:
               1          2
     1  O   -0.148279   0.060645
     2  C   -0.043837   0.028170
     3  C   -0.071763   0.025502
     4  C    0.132254   0.025381
     5  C    0.131626   0.860303
 APT charges:
               1
     1  O   -0.139698
     2  C   -1.295652
     3  C   -1.281306
     4  C   -1.152581
     5  C    0.342176
     6  H    0.334514
     7  H    0.347668
     8  H    0.456384
     9  H    0.384566
    10  H    0.376011
    11  H    0.448773
    12  H    0.334057
    13  H    0.540264
    14  H    0.304823
 Sum of APT charges =  -0.00000
 APT charges with hydrogens summed into heavy atoms:
               1
     1  O   -0.139698
     2  C   -0.157086
     3  C   -0.071956
     4  C    0.026563
     5  C    0.342176
 Electronic spatial extent (au):  <R**2>=            491.5898
 Charge=             -0.0000 electrons
 Dipole moment (field-independent basis, Debye):
    X=              0.4923    Y=              1.2157    Z=              0.3037  Tot=              1.3463
 Quadrupole moment (field-independent basis, Debye-Ang):
   XX=            -29.5127   YY=            -33.9728   ZZ=            -33.8235
   XY=              0.3601   XZ=             -0.0352   YZ=             -0.1556
 Traceless Quadrupole moment (field-independent basis, Debye-Ang):
   XX=              2.9236   YY=             -1.5365   ZZ=             -1.3872
   XY=              0.3601   XZ=             -0.0352   YZ=             -0.1556
 Octapole moment (field-independent basis, Debye-Ang**2):
  XXX=              8.7337  YYY=             -3.2135  ZZZ=              1.7144  XYY=              0.3095
  XXY=             -2.6505  XXZ=             -0.8273  XZZ=              1.6663  YZZ=             -0.2089
  YYZ=             -0.2154  XYZ=             -0.1490
 Hexadecapole moment (field-independent basis, Debye-Ang**3):
 XXXX=           -395.8970 YYYY=           -216.3905 ZZZZ=            -61.5065 XXXY=            -10.2017
 XXXZ=              2.0080 YYYX=             -2.7209 YYYZ=             -3.1932 ZZZX=              0.7264
 ZZZY=              1.2636 XXYY=            -98.4683 XXZZ=            -76.2339 YYZZ=            -46.1046
 XXYZ=             -0.3281 YYXZ=             -0.4299 ZZXY=              0.8039
 N-N= 1.865537477285D+02 E-N=-9.157616439043D+02  KE= 2.318063179902D+02
  Exact polarizability:   0.000   0.000   0.000   0.000   0.000   0.000
 Approx polarizability:  66.347  -0.700  62.760   0.266   0.591  58.804
                          Isotropic Fermi Contact Couplings
        Atom                 a.u.       MegaHertz       Gauss      10(-4) cm-1
     1  O(17)              0.03802     -23.04579      -8.22331      -7.68725
     2  C(13)             -0.01118     -12.56302      -4.48280      -4.19057
     3  C(13)             -0.01573     -17.67959      -6.30852      -5.89728
     4  C(13)             -0.00414      -4.64902      -1.65889      -1.55075
     5  C(13)              0.21938     246.62833      88.00312      82.26635
     6  H(1)               0.02319     103.65039      36.98504      34.57405
     7  H(1)               0.00738      32.97664      11.76688      10.99982
     8  H(1)               0.00195       8.73665       3.11745       2.91423
     9  H(1)               0.01357      60.67684      21.65101      20.23962
    10  H(1)               0.00098       4.39557       1.56845       1.46620
    11  H(1)               0.01742      77.85247      27.77970      25.96879
    12  H(1)               0.00224       9.99302       3.56576       3.33331
    13  H(1)              -0.00051      -2.25877      -0.80598      -0.75344
    14  H(1)               0.00210       9.36917       3.34315       3.12522
 --------------------------------------------------------
       Center         ----  Spin Dipole Couplings  ----
                      3XX-RR        3YY-RR        3ZZ-RR
 --------------------------------------------------------
     1   Atom       -0.359522     -0.389358      0.748880
     2   Atom       -0.010186      0.015421     -0.005235
     3   Atom        0.011338     -0.010778     -0.000560
     4   Atom        0.016448     -0.005654     -0.010794
     5   Atom       -0.523978     -0.521212      1.045190
     6   Atom       -0.007178      0.007910     -0.000732
     7   Atom       -0.002652      0.011625     -0.008973
     8   Atom       -0.007541      0.015353     -0.007812
     9   Atom        0.009865     -0.006531     -0.003334
    10   Atom        0.001010      0.004259     -0.005269
    11   Atom        0.016347     -0.007746     -0.008601
    12   Atom        0.007021     -0.004379     -0.002641
    13   Atom        0.009278     -0.004858     -0.004420
    14   Atom        0.013194     -0.006105     -0.007089
 --------------------------------------------------------
                        XY            XZ            YZ
 --------------------------------------------------------
     1   Atom        0.037753     -0.005238      0.035488
     2   Atom        0.004499     -0.000207      0.010456
     3   Atom        0.011781     -0.007857     -0.005553
     4   Atom        0.003093      0.004239      0.000619
     5   Atom        0.003281     -0.035096      0.040833
     6   Atom        0.003080      0.002467      0.009405
     7   Atom        0.012168     -0.000210     -0.001399
     8   Atom       -0.007646     -0.000739      0.001237
     9   Atom        0.001577     -0.009605     -0.000828
    10   Atom        0.010692     -0.005337     -0.004937
    11   Atom        0.008058      0.005504      0.001457
    12   Atom        0.003123      0.006720      0.001579
    13   Atom       -0.002690      0.000898     -0.000305
    14   Atom        0.005141     -0.002930     -0.000785
 --------------------------------------------------------


 ---------------------------------------------------------------------------------
              Anisotropic Spin Dipole Couplings in Principal Axis System
 ---------------------------------------------------------------------------------

       Atom             a.u.   MegaHertz   Gauss  10(-4) cm-1        Axes

              Baa    -0.4159    30.096    10.739    10.039 -0.5578  0.8295 -0.0278
     1 O(17)  Bbb    -0.3341    24.173     8.626     8.063  0.8300  0.5576 -0.0143
              Bcc     0.7500   -54.269   -19.365   -18.102 -0.0037  0.0310  0.9995
 
              Baa    -0.0122    -1.631    -0.582    -0.544  0.7942 -0.3244  0.5138
     2 C(13)  Bbb    -0.0082    -1.097    -0.392    -0.366 -0.5929 -0.2290  0.7720
              Bcc     0.0203     2.729     0.974     0.910  0.1327  0.9178  0.3742
 
              Baa    -0.0162    -2.171    -0.775    -0.724 -0.3523  0.9236  0.1512
     3 C(13)  Bbb    -0.0045    -0.599    -0.214    -0.200  0.4343  0.0182  0.9006
              Bcc     0.0206     2.770     0.988     0.924  0.8290  0.3829 -0.4075
 
              Baa    -0.0114    -1.535    -0.548    -0.512 -0.1473 -0.0270  0.9887
     4 C(13)  Bbb    -0.0061    -0.816    -0.291    -0.272 -0.1372  0.9905  0.0066
              Bcc     0.0175     2.351     0.839     0.784  0.9795  0.1347  0.1496
 
              Baa    -0.5279   -70.838   -25.277   -23.629  0.8010 -0.5978  0.0334
     5 C(13)  Bbb    -0.5191   -69.664   -24.858   -23.237  0.5983  0.8013 -0.0075
              Bcc     1.0470   140.502    50.135    46.866 -0.0223  0.0260  0.9994
 
              Baa    -0.0080    -4.277    -1.526    -1.427  0.9361  0.0261 -0.3507
     6 H(1)   Bbb    -0.0066    -3.537    -1.262    -1.180  0.3039 -0.5620  0.7693
              Bcc     0.0146     7.814     2.788     2.606  0.1770  0.8267  0.5341
 
              Baa    -0.0099    -5.292    -1.888    -1.765  0.7387 -0.4498 -0.5020
     7 H(1)   Bbb    -0.0087    -4.662    -1.664    -1.555  0.4568 -0.2136  0.8636
              Bcc     0.0187     9.954     3.552     3.320  0.4957  0.8672 -0.0477
 
              Baa    -0.0099    -5.292    -1.888    -1.765  0.9457  0.2779  0.1684
     8 H(1)   Bbb    -0.0078    -4.177    -1.491    -1.393 -0.1457 -0.1006  0.9842
              Bcc     0.0177     9.470     3.379     3.159 -0.2904  0.9553  0.0546
 
              Baa    -0.0084    -4.475    -1.597    -1.493  0.4657 -0.0013  0.8849
     9 H(1)   Bbb    -0.0067    -3.563    -1.271    -1.189 -0.0721  0.9966  0.0394
              Bcc     0.0151     8.039     2.868     2.681  0.8820  0.0822 -0.4641
 
              Baa    -0.0088    -4.681    -1.670    -1.562  0.7270 -0.3796  0.5722
    10 H(1)   Bbb    -0.0071    -3.810    -1.360    -1.271 -0.2838  0.5927  0.7538
              Bcc     0.0159     8.491     3.030     2.832  0.6253  0.7104 -0.3231
 
              Baa    -0.0103    -5.479    -1.955    -1.827 -0.3367  0.8756  0.3464
    11 H(1)   Bbb    -0.0097    -5.154    -1.839    -1.719 -0.0730 -0.3910  0.9175
              Bcc     0.0199    10.633     3.794     3.547  0.9388  0.2836  0.1956
 
              Baa    -0.0061    -3.248    -1.159    -1.083 -0.4600  0.0208  0.8877
    12 H(1)   Bbb    -0.0052    -2.754    -0.983    -0.919 -0.1847  0.9756 -0.1185
              Bcc     0.0112     6.002     2.142     2.002  0.8685  0.2185  0.4450
 
              Baa    -0.0054    -2.867    -1.023    -0.956  0.1695  0.9738  0.1519
    13 H(1)   Bbb    -0.0045    -2.380    -0.849    -0.794 -0.0915 -0.1380  0.9862
              Bcc     0.0098     5.247     1.872     1.750  0.9813 -0.1810  0.0657
 
              Baa    -0.0075    -4.016    -1.433    -1.340  0.0401  0.3679  0.9290
    14 H(1)   Bbb    -0.0074    -3.932    -1.403    -1.312 -0.2736  0.8983 -0.3439
              Bcc     0.0149     7.948     2.836     2.651  0.9610  0.2404 -0.1367
 

 ---------------------------------------------------------------------------------

 No NMR shielding tensors so no spin-rotation constants.
 Leave Link  601 at Tue Apr  9 01:41:22 2019, MaxMem=   671088640 cpu:               8.4 elap:               0.5
 (Enter /shared/centos7/gaussian/g16/l701.exe)
 SCFChk:  SCF convergence  4.95D-09 required  1.00D-08
 ... and contract with generalized density number  0.
 Compute integral second derivatives.
 Entering OneElI...
 Calculate overlap and kinetic energy integrals
    NBasis = 276  MinDer = 2  MaxDer = 2
 Requested accuracy = 0.1000D-12
 PrmmSu-InSpLW:  IPartL=    0 NPrtUS=   20 NPrtUL=    1 DoSpLW=F IThBeg=    0 IThEnd=   19 NThAct=   20.
 PrsmSu:  NPrtUS=  20 ThrOK=T IAlg=1 NPAlg=1 LenDen=           0 ISkipM=0 DoSpLW=F IThBeg=    0 IThEnd=   19.
 Prism:   IPart=     0 DynPar=F LinDyn=F Incr=           1.
 PRISM was handed    33457010 working-precision words and  3655 shell-pairs
 PRISM was handed    33457010 working-precision words and  3655 shell-pairs
 PRISM was handed    33457010 working-precision words and  3655 shell-pairs
 PRISM was handed    33457010 working-precision words and  3655 shell-pairs
 PRISM was handed    33457010 working-precision words and  3655 shell-pairs
 PRISM was handed    33457010 working-precision words and  3655 shell-pairs
 PRISM was handed    33457010 working-precision words and  3655 shell-pairs
 PRISM was handed    33457010 working-precision words and  3655 shell-pairs
 PRISM was handed    33457010 working-precision words and  3655 shell-pairs
 PRISM was handed    33457010 working-precision words and  3655 shell-pairs
 PRISM was handed    33457010 working-precision words and  3655 shell-pairs
 PRISM was handed    33457010 working-precision words and  3655 shell-pairs
 PRISM was handed    33457010 working-precision words and  3655 shell-pairs
 PRISM was handed    33457010 working-precision words and  3655 shell-pairs
 PRISM was handed    33457010 working-precision words and  3655 shell-pairs
 PRISM was handed    33457010 working-precision words and  3655 shell-pairs
 PRISM was handed    33457010 working-precision words and  3655 shell-pairs
 PRISM was handed    33457010 working-precision words and  3655 shell-pairs
 PRISM was handed    33457010 working-precision words and  3655 shell-pairs
 PRISM was handed    33457010 working-precision words and  3655 shell-pairs
 IPart=  2 NShTot=         209 NBatch=          50 AvBLen=         4.2
 IPart=  1 NShTot=         213 NBatch=          54 AvBLen=         3.9
 IPart= 14 NShTot=         170 NBatch=          31 AvBLen=         5.5
 IPart= 16 NShTot=         163 NBatch=          29 AvBLen=         5.6
 IPart= 17 NShTot=         163 NBatch=          29 AvBLen=         5.6
 IPart=  3 NShTot=         208 NBatch=          49 AvBLen=         4.2
 IPart= 15 NShTot=         166 NBatch=          30 AvBLen=         5.5
 IPart=  0 NShTot=         215 NBatch=          55 AvBLen=         3.9
 IPart=  9 NShTot=         182 NBatch=          34 AvBLen=         5.4
 IPart= 19 NShTot=         163 NBatch=          29 AvBLen=         5.6
 IPart= 18 NShTot=         163 NBatch=          29 AvBLen=         5.6
 IPart=  4 NShTot=         203 NBatch=          47 AvBLen=         4.3
 IPart= 11 NShTot=         172 NBatch=          32 AvBLen=         5.4
 IPart=  5 NShTot=         190 NBatch=          40 AvBLen=         4.8
 IPart= 13 NShTot=         171 NBatch=          32 AvBLen=         5.3
 IPart= 10 NShTot=         173 NBatch=          32 AvBLen=         5.4
 IPart=  8 NShTot=         185 NBatch=          36 AvBLen=         5.1
 IPart=  7 NShTot=         187 NBatch=          38 AvBLen=         4.9
 IPart=  6 NShTot=         188 NBatch=          38 AvBLen=         4.9
 IPart= 12 NShTot=         171 NBatch=          32 AvBLen=         5.3
 PrSmSu:  NxtVal=             21.
 Entering OneElI...
 Calculate potential energy integrals
    NBasis = 276  MinDer = 2  MaxDer = 2
 Requested accuracy = 0.1000D-12
 PrmmSu-InSpLW:  IPartL=    0 NPrtUS=   20 NPrtUL=    1 DoSpLW=F IThBeg=    0 IThEnd=   19 NThAct=   20.
 PrsmSu:  NPrtUS=  20 ThrOK=T IAlg=1 NPAlg=1 LenDen=           0 ISkipM=0 DoSpLW=F IThBeg=    0 IThEnd=   19.
 Prism:   IPart=     0 DynPar=F LinDyn=F Incr=          24.
 PRISM was handed    33469714 working-precision words and  3484 shell-pairs
 PRISM was handed    33469714 working-precision words and  3484 shell-pairs
 PRISM was handed    33469714 working-precision words and  3484 shell-pairs
 PRISM was handed    33469714 working-precision words and  3484 shell-pairs
 PRISM was handed    33469714 working-precision words and  3484 shell-pairs
 PRISM was handed    33469714 working-precision words and  3484 shell-pairs
 PRISM was handed    33469714 working-precision words and  3484 shell-pairs
 PRISM was handed    33469714 working-precision words and  3484 shell-pairs
 PRISM was handed    33469714 working-precision words and  3484 shell-pairs
 PRISM was handed    33469714 working-precision words and  3484 shell-pairs
 PRISM was handed    33469714 working-precision words and  3484 shell-pairs
 PRISM was handed    33469714 working-precision words and  3484 shell-pairs
 PRISM was handed    33469714 working-precision words and  3484 shell-pairs
 PRISM was handed    33469714 working-precision words and  3484 shell-pairs
 PRISM was handed    33469714 working-precision words and  3484 shell-pairs
 PRISM was handed    33469714 working-precision words and  3484 shell-pairs
 PRISM was handed    33469714 working-precision words and  3484 shell-pairs
 PRISM was handed    33469714 working-precision words and  3484 shell-pairs
 PRISM was handed    33469714 working-precision words and  3484 shell-pairs
 PRISM was handed    33469714 working-precision words and  3484 shell-pairs
 IPart= 16 NShTot=        2226 NBatch=         159 AvBLen=        14.0
 IPart= 17 NShTot=        2212 NBatch=         158 AvBLen=        14.0
 IPart= 15 NShTot=        2240 NBatch=         160 AvBLen=        14.0
 IPart= 14 NShTot=        2282 NBatch=         163 AvBLen=        14.0
 IPart= 13 NShTot=        2282 NBatch=         163 AvBLen=        14.0
 IPart= 12 NShTot=        2324 NBatch=         166 AvBLen=        14.0
 IPart=  9 NShTot=        2366 NBatch=         169 AvBLen=        14.0
 IPart=  8 NShTot=        2422 NBatch=         173 AvBLen=        14.0
 IPart=  0 NShTot=        2884 NBatch=         206 AvBLen=        14.0
 IPart=  3 NShTot=        2716 NBatch=         194 AvBLen=        14.0
 IPart=  1 NShTot=        2842 NBatch=         203 AvBLen=        14.0
 IPart=  2 NShTot=        2758 NBatch=         197 AvBLen=        14.0
 IPart= 11 NShTot=        2324 NBatch=         166 AvBLen=        14.0
 IPart=  4 NShTot=        2660 NBatch=         190 AvBLen=        14.0
 IPart=  7 NShTot=        2450 NBatch=         175 AvBLen=        14.0
 IPart= 10 NShTot=        2352 NBatch=         168 AvBLen=        14.0
 IPart= 18 NShTot=        2212 NBatch=         158 AvBLen=        14.0
 IPart= 19 NShTot=        2170 NBatch=         155 AvBLen=        14.0
 IPart=  5 NShTot=        2548 NBatch=         182 AvBLen=        14.0
 IPart=  6 NShTot=        2506 NBatch=         179 AvBLen=        14.0
 PrSmSu:  NxtVal=            481.
 Polarizability after L701:
                1             2             3 
      1  0.000000D+00
      2  0.000000D+00  0.000000D+00
      3  0.000000D+00  0.000000D+00  0.000000D+00
 Dipole Derivatives after L701:
                 1             2             3             4             5 
      1   0.150366D+00  0.221939D+00  0.480199D-02 -0.963315D+00  0.938392D-01
      2  -0.167406D-01 -0.334584D+00 -0.419788D-01 -0.687479D-01 -0.178920D+01
      3   0.301039D-01 -0.424419D-01 -0.234875D+00  0.706991D-01  0.267654D-01
                 6             7             8             9            10 
      1   0.870903D-01 -0.176514D+01 -0.313523D+00  0.174154D-01 -0.186341D+01
      2  -0.203206D+00 -0.288831D+00 -0.104549D+01 -0.231377D-01  0.287330D+00
      3  -0.113444D+01 -0.360393D-01 -0.449407D-01 -0.103329D+01 -0.222295D-01
                11            12            13            14            15 
      1  -0.375006D+00 -0.428729D-01  0.281970D+00  0.943340D-01 -0.648448D-01
      2  -0.657402D+00  0.362716D-01  0.184203D+00  0.502830D+00  0.186496D+00
      3   0.388011D-01 -0.936929D+00 -0.780314D-01  0.801878D-01  0.241727D+00
                16            17            18            19            20 
      1   0.127611D+00 -0.457874D-02 -0.271791D-01  0.390396D+00  0.712659D-01
      2   0.157365D+00  0.289857D+00  0.628403D+00  0.661640D+00  0.355798D+00
      3   0.916325D-01  0.701556D-01  0.586075D+00 -0.227942D+00 -0.538715D-01
                21            22            23            24            25 
      1  -0.142581D+00  0.556866D+00 -0.269851D+00  0.156147D+00  0.663774D+00
      2  -0.306007D+00 -0.743969D+00  0.636198D+00 -0.253555D+00  0.210350D-01
      3   0.296811D+00  0.127756D+00 -0.704993D-01  0.176087D+00 -0.186828D+00
                26            27            28            29            30 
      1  -0.479372D+00 -0.613301D+00  0.112111D+00  0.708567D+00 -0.222013D+00
      2   0.125422D+00  0.255543D-01 -0.321527D-01  0.854473D+00 -0.240253D+00
      3   0.207555D+00  0.364502D+00  0.175963D-01 -0.172497D+00  0.161448D+00
                31            32            33            34            35 
      1   0.758349D+00  0.797653D-03  0.797487D+00  0.281855D+00  0.485761D+00
      2   0.157682D+00  0.115261D+00  0.187563D+00  0.109447D-01  0.210750D+00
      3   0.202469D+00 -0.134889D-01  0.472710D+00  0.196767D-01  0.222500D+00
                36            37            38            39            40 
      1   0.642461D+00  0.102281D+01 -0.838786D+00 -0.533797D-01  0.245765D+00
      2   0.103760D+00 -0.325266D+00  0.485760D+00  0.263804D-01 -0.449293D-02
      3   0.509567D+00  0.281919D-03  0.902364D-02  0.112226D+00 -0.914446D-02
                41            42 
      1   0.604614D+00 -0.539231D+00
      2   0.250326D+00 -0.126290D+00
      3  -0.257249D+00  0.418377D+00
 Hessian after L701:
                1             2             3             4             5 
      1  0.208536D+01
      2  0.159269D+01  0.926540D+01
      3 -0.882182D+00  0.442346D+00  0.138412D+02
      4 -0.263731D+00 -0.321974D+00 -0.436794D-01  0.123812D+02
      5 -0.320875D+00  0.805380D+00  0.146237D+00 -0.656840D-01  0.873460D+01
      6 -0.159857D-01  0.946571D-01 -0.336627D+00  0.333355D-02 -0.177553D+00
      7  0.763816D+00  0.922365D-01 -0.156373D+00 -0.887222D-03  0.155648D+00
      8 -0.550652D-01 -0.127286D+00  0.179877D-01  0.225324D+00  0.920263D-01
      9 -0.115913D+00  0.182792D-01 -0.129741D+00 -0.342286D-01 -0.506656D-01
     10 -0.549737D+00  0.265805D+01  0.195408D+00  0.119418D+00 -0.169895D+00
     11  0.265442D+01 -0.547959D+01  0.926382D-01 -0.344446D+00  0.125659D-01
     12  0.209951D+00  0.795884D-01 -0.697231D+01  0.414635D-01 -0.383497D-01
     13 -0.217888D+01 -0.359988D+01  0.974652D+00 -0.511352D+01  0.580604D+00
     14 -0.356098D+01 -0.489189D+01 -0.698609D+00  0.560020D+00 -0.315184D+00
     15  0.894093D+00 -0.653068D+00 -0.687019D+01  0.433096D-01  0.413836D+00
     16 -0.493107D-01 -0.216143D-01 -0.146075D-03 -0.342955D+01  0.101955D+00
     17 -0.313701D-01  0.841752D-01  0.211179D-01  0.141376D+00 -0.335349D+01
     18 -0.179645D-01  0.747613D-01 -0.383618D-01  0.451992D+00  0.604826D+00
     19 -0.418300D-01  0.353011D-01 -0.670728D-02 -0.200103D+01  0.715722D+00
     20 -0.196563D-01  0.946302D-01  0.894090D-02  0.916250D+00 -0.338083D+01
     21  0.465053D-02 -0.250595D-01 -0.406263D-01 -0.104644D+01 -0.441979D+00
     22  0.283941D-01 -0.105633D+00  0.832632D-02 -0.185149D+01 -0.109567D+01
     23 -0.914607D-01  0.915541D-01 -0.836809D-02 -0.120259D+01 -0.257614D+01
     24  0.157507D-01 -0.219490D-01 -0.398228D-01  0.563464D+00 -0.400993D+00
     25  0.121962D+00 -0.498168D-01 -0.494879D-01  0.585504D-01  0.639684D-01
     26 -0.639671D-01 -0.329299D-01  0.209202D-01  0.277762D-01 -0.416079D-01
     27 -0.727948D-01  0.208580D-01 -0.292224D-01 -0.584322D-01 -0.277366D-01
     28  0.851119D-01  0.155764D-01 -0.206857D-01 -0.172432D-01  0.354440D-01
     29  0.103418D+00 -0.315468D-01 -0.160137D-01  0.409287D-01  0.752283D-01
     30 -0.494340D-01 -0.127169D-01 -0.532073D-01 -0.633043D-02 -0.175605D-01
     31  0.140856D+00 -0.172368D-01  0.395886D-01  0.319594D-01  0.323860D-01
     32 -0.145557D-01 -0.477438D-01 -0.675569D-02  0.324543D-01  0.925382D-03
     33  0.808866D-01 -0.677427D-02 -0.260658D-01  0.329374D-01  0.191559D-01
     34 -0.812868D-01 -0.872474D-01  0.113800D+00  0.670711D-01 -0.370836D-01
     35 -0.307209D-01  0.532998D-01  0.179026D+00 -0.152090D-01 -0.412996D-01
     36  0.115838D+00  0.164897D+00  0.339088D+00  0.846470D-01 -0.261617D-01
     37 -0.204764D-01 -0.121934D+00 -0.401498D-01  0.183166D-01 -0.259098D-01
     38 -0.169423D+00  0.137109D+00  0.780001D-02 -0.322106D-01  0.100728D-01
     39 -0.361361D-01  0.467267D-02  0.644062D-01 -0.781457D-03  0.115228D-02
     40 -0.402427D-01 -0.685120D-01 -0.132364D+00  0.936797D-03  0.293887D-01
     41  0.755109D-02  0.794393D-01 -0.207267D+00  0.379791D-01 -0.222480D-01
     42 -0.130759D+00 -0.180492D+00  0.291519D+00 -0.312532D-01 -0.420986D-02
                6             7             8             9            10 
      6  0.133786D+02
      7 -0.548390D-01  0.882718D+01
      8 -0.607476D-01 -0.127091D+01  0.124211D+02
      9 -0.193231D+00  0.468837D+00  0.158111D+00  0.133301D+02
     10  0.392031D-01  0.250780D+00  0.646737D-01  0.168761D-02  0.902734D+01
     11 -0.327499D-01  0.342134D-01 -0.143813D+00  0.235146D-02 -0.166732D+01
     12 -0.219359D+00  0.166323D-01  0.187345D-02 -0.158243D+00 -0.273358D+00
     13  0.257066D-01 -0.131684D+01  0.168703D+01 -0.638719D+00  0.417213D+00
     14  0.410828D+00  0.166829D+01 -0.489825D+01 -0.252224D+00 -0.209150D+00
[...]
 ! A14   A(1,4,12)             111.6419         -DE/DX =    0.0                 !
 ! A15   A(1,4,13)             106.7199         -DE/DX =    0.0                 !
 ! A16   A(1,4,14)             110.7844         -DE/DX =    0.0                 !
 ! A17   A(12,4,13)            109.0577         -DE/DX =    0.0                 !
 ! A18   A(12,4,14)            109.1918         -DE/DX =    0.0                 !
 ! A19   A(13,4,14)            109.3855         -DE/DX =    0.0                 !
 ! A20   A(1,5,2)              118.519          -DE/DX =    0.0                 !
 ! A21   A(1,5,3)              111.3297         -DE/DX =    0.0                 !
 ! A22   A(2,5,3)              119.6379         -DE/DX =    0.0                 !
 ! D1    D(5,1,4,12)            68.9057         -DE/DX =    0.0                 !
 ! D2    D(5,1,4,13)          -172.0176         -DE/DX =    0.0                 !
 ! D3    D(5,1,4,14)           -53.0239         -DE/DX =    0.0                 !
 ! D4    D(4,1,5,2)            -39.014          -DE/DX =    0.0                 !
 ! D5    D(4,1,5,3)            176.2623         -DE/DX =    0.0                 !
 ! D6    D(6,2,5,1)            -62.3606         -DE/DX =    0.0                 !
 ! D7    D(6,2,5,3)             79.4008         -DE/DX =    0.0                 !
 ! D8    D(7,2,5,1)             58.6204         -DE/DX =    0.0                 !
 ! D9    D(7,2,5,3)           -159.6182         -DE/DX =    0.0                 !
 ! D10   D(8,2,5,1)            178.7729         -DE/DX =    0.0                 !
 ! D11   D(8,2,5,3)            -39.4657         -DE/DX =    0.0                 !
 ! D12   D(9,3,5,1)             73.6348         -DE/DX =    0.0                 !
 ! D13   D(9,3,5,2)            -70.6451         -DE/DX =    0.0                 !
 ! D14   D(10,3,5,1)           -45.7775         -DE/DX =    0.0                 !
 ! D15   D(10,3,5,2)           169.9426         -DE/DX =    0.0                 !
 ! D16   D(11,3,5,1)          -166.5199         -DE/DX =    0.0                 !
 ! D17   D(11,3,5,2)            49.2002         -DE/DX =    0.0                 !
 --------------------------------------------------------------------------------
 GradGradGradGradGradGradGradGradGradGradGradGradGradGradGradGradGradGrad

 Leave Link  103 at Tue Apr  9 01:58:37 2019, MaxMem=   671088640 cpu:               0.3 elap:               0.0
 (Enter /shared/centos7/gaussian/g16/l9999.exe)

 ----------------------------------------------------------------------

 Electric dipole moment (input orientation):
 (Debye = 10**-18 statcoulomb cm , SI units = C m)
                  (au)            (Debye)         (10**-30 SI)
   Tot        0.475488D+00      0.120857D+01      0.403135D+01
   x         -0.241168D+00     -0.612987D+00     -0.204470D+01
   y          0.212186D+00      0.539323D+00      0.179899D+01
   z         -0.350576D+00     -0.891076D+00     -0.297231D+01

 Dipole polarizability, Alpha (input orientation).
 (esu units = cm**3 , SI units = C**2 m**2 J**-1)
 Alpha(0;0):
               (au)            (10**-24 esu)      (10**-40 SI)
   iso        0.555839D+02      0.823669D+01      0.916455D+01
   aniso      0.130355D+02      0.193167D+01      0.214927D+01
   xx         0.607978D+02      0.900930D+01      0.100242D+02
   yx        -0.512107D+01     -0.758864D+00     -0.844350D+00
   yy         0.510258D+02      0.756124D+01      0.841302D+01
   zx        -0.243122D+01     -0.360269D+00     -0.400854D+00
   zy        -0.557042D+00     -0.825451D-01     -0.918438D-01
   zz         0.549282D+02      0.813952D+01      0.905644D+01

 ----------------------------------------------------------------------

 Dipole orientation:
     8         -2.18969915          0.95405281          0.00956631
     6          1.17577181          1.72100570          3.12229247
     6          1.82230799          1.86755507         -1.70221222
     6         -3.79669122          0.01797556          1.91705272
     6          0.34169108          0.99972249          0.52424693
     1          0.61064351          3.66634612          3.58778552
     1          0.40574727          0.48896703          4.58225578
     1          3.22681251          1.62635528          3.23538038
     1          1.61061491          3.91065745         -2.00404149
     1          1.17545424          0.91956516         -3.41058472
     1          3.82557598          1.47779882         -1.44061565
     1         -3.87498126          1.29141097          3.53891730
     1         -5.67014198         -0.13090436          1.09059211
     1         -3.17552539         -1.84811639          2.54829415

 Electric dipole moment (dipole orientation):
 (Debye = 10**-18 statcoulomb cm , SI units = C m)
                  (au)            (Debye)         (10**-30 SI)
   Tot        0.475488D+00      0.120857D+01      0.403135D+01
   x          0.000000D+00      0.000000D+00      0.000000D+00
   y          0.000000D+00      0.000000D+00      0.000000D+00
   z          0.475488D+00      0.120857D+01      0.403135D+01

 Dipole polarizability, Alpha (dipole orientation).
 (esu units = cm**3 , SI units = C**2 m**2 J**-1)
 Alpha(0;0):
               (au)            (10**-24 esu)      (10**-40 SI)
   iso        0.555839D+02      0.823669D+01      0.916455D+01
   aniso      0.130355D+02      0.193167D+01      0.214927D+01
   xx         0.601598D+02      0.891477D+01      0.991902D+01
   yx         0.429414D+01      0.636326D+00      0.708008D+00
   yy         0.500645D+02      0.741879D+01      0.825452D+01
   zx        -0.329033D+01     -0.487576D+00     -0.542501D+00
   zy        -0.110877D+01     -0.164302D+00     -0.182811D+00
   zz         0.565274D+02      0.837650D+01      0.932012D+01

 ----------------------------------------------------------------------

 Test job not archived.
 1\1\GINC-C0300\Freq\UM062X\6-311+G(2df,2p)\C4H9O1(2)\UNDERKOFFLER.C\09
 -Apr-2019\0\\#P Geom=AllCheck Guess=TCheck SCRF=Check Test GenChk UM06
 2X/6-311+G(2df,2p) Freq\\Gaussian input prepared by ASE\\0,2\O,-1.0554
 994088,-0.5956960738,0.3586854856\C,-0.4266092524,0.0120482473,-1.9401
 814846\C,1.1496494996,-1.1513224189,-0.2659813344\C,-2.2273937464,0.18
 25291004,0.2668222953\C,-0.05558938,-0.3210348597,-0.5323300358\H,-0.9
 404331645,-0.8284199503,-2.4295017161\H,-1.0806640478,0.8809591353,-2.
 0121896313\H,0.4742111524,0.2245018632,-2.5124497837\H,0.9943693557,-2
 .1944268889,-0.5738694446\H,1.3819172063,-1.1551892169,0.7980379839\H,
 2.0094187053,-0.768829771,-0.8136820936\H,-2.7857881378,-0.0365031231,
 -0.6456695335\H,-2.8398953907,-0.0720416804,1.1272647995\H,-1.98813288
 81,1.248719547,0.2944842736\\Version=EM64L-G16RevA.03\State=2-A\HF=-23
 2.9674211\S2=0.754228\S2-1=0.\S2A=0.750014\RMSD=5.257e-09\RMSF=7.944e-
 07\ZeroPoint=0.1236544\Thermal=0.1305606\Dipole=-0.2411675,0.2121861,-
 0.3505764\DipoleDeriv=-1.3079916,0.2723053,0.402653,0.0615865,-0.43338
 98,0.1589249,0.3739982,0.0310048,-0.6956518,-0.0265298,0.1023666,-0.02
 42973,0.0194633,0.1106147,0.0601145,0.0685345,0.1261372,-0.0569541,-0.
 0250519,0.0075446,0.010522,0.1361643,0.1350379,0.0572516,0.0062105,0.0
 36206,-0.0061473,0.7188917,-0.1881513,-0.0994181,-0.2824321,0.4435959,
 0.0984043,0.0472305,-0.0011781,0.2825242,0.7655702,-0.1074937,-0.28947
 52,-0.0158714,-0.0783742,-0.2374812,-0.4514968,-0.164674,0.5494795,0.0
 148376,-0.0616466,-0.0917342,-0.0846677,-0.0646208,-0.1017175,-0.05029
 38,-0.0165017,-0.0538426,-0.0079952,0.0900398,-0.0451813,0.0939959,-0.
 0421687,0.0155987,-0.02336,-0.0089207,0.0387011,-0.0543703,-0.0343689,
 0.0998243,-0.0257548,0.0755467,0.0076318,0.0605356,0.0039303,0.0248762
 ,0.0012572,-0.0373507,-0.0283699,0.0685908,-0.1662095,-0.0358859,-0.01
 26498,-0.0720259,0.043935,0.0480855,0.0210277,-0.0291712,0.016201,0.05
 91831,-0.0076962,-0.0660644,0.0183973,-0.0935462,-0.0513284,-0.0144032
 ,0.0615696,-0.0557109,0.0323512,0.0442146,0.0859208,0.0341121,0.023180
 2,-0.0431845,0.0213751,-0.0288147,0.0225144,0.0138798,-0.0731541,-0.13
 31191,-0.0192546,-0.0750723,-0.0217706,0.0148328,0.0638221,-0.018275,0
 .0612665,0.0511625,0.1173396,0.0208102,-0.0455848,-0.0104201,-0.086077
 6,-0.0019292,0.0641956,-0.1467128,-0.037368,-0.0227857,0.0119572,0.064
 103\Polar=60.7977689,-5.121069,51.0257856,-2.4312172,-0.5570418,54.928
 2114\Quadrupole=1.6436951,-0.9714063,-0.6722888,-1.1589057,-0.6814265,
 0.3739867\PG=C01 [X(C4H9O1)]\NImag=0\\0.49814618,-0.11359418,0.2034760
 4,-0.13683701,-0.09381106,0.26767105,0.00183276,-0.00727245,0.03681015
 ,0.57389143,0.00299522,0.00372536,0.01181307,-0.01801760,0.52843704,0.
 00307455,0.00141268,-0.02727716,-0.03867377,-0.01612769,0.48021349,-0.
 03717208,0.02167995,0.00308013,-0.00324502,0.00996803,-0.00428469,0.53
 749365,-0.00700082,0.00688372,-0.00235238,0.00208592,-0.00080415,-0.00
 179259,0.02716916,0.48752420,0.02952875,-0.01443262,0.00150258,-0.0240
 0822,0.02246300,-0.00468899,-0.02266686,-0.01461893,0.58215462,-0.1885
 6192,0.07393926,0.00020850,0.00237328,-0.00307916,0.00133107,-0.000649
 60,-0.00137120,0.00210119,0.53145042,0.09479585,-0.13013163,0.01639381
 ,-0.00293808,-0.00002215,0.00145612,-0.00087548,0.00115375,0.00218189,
 0.05101414,0.54771273,-0.01941083,0.02786190,-0.08178504,0.00352903,-0
 .00127861,-0.00114993,0.00271147,0.00191561,-0.00226611,-0.02623268,-0
 .01063704,0.60580012,-0.20766729,-0.01869608,0.09654278,-0.09770258,0.
 01191709,-0.03439831,-0.17122276,0.08872883,-0.02683830,-0.04217257,-0
 .00314428,0.02474266,0.53825681,-0.03606144,-0.06933948,0.06797367,0.0
 2300015,-0.07097014,0.04941496,0.06400049,-0.11283929,0.02472390,0.018
 01985,0.00274771,-0.01516899,-0.09808164,0.27022374,0.12531666,0.06721
 003,-0.17009129,-0.03942854,0.02575655,-0.19406813,-0.02234792,0.03071
 193,-0.08452785,0.00885444,-0.00792476,-0.00111885,-0.03962560,-0.1338
 8241,0.48808529,0.00225982,0.00137463,-0.00061782,-0.09721096,-0.08834
 656,-0.04467677,0.00077493,-0.00003641,0.00042975,-0.00009423,0.000656
 94,-0.00011968,-0.00639447,-0.00590763,-0.00808616,0.10378267,0.001935
 44,0.00044770,-0.00204522,-0.08515711,-0.18943830,-0.07480344,-0.00019
 807,0.00066561,-0.00048962,-0.00106860,-0.00017439,-0.00050082,0.00200
 761,0.00846803,-0.00004420,0.09746398,0.20629996,0.00443386,0.00381564
 ,0.00225279,-0.04873449,-0.08455068,-0.08764624,0.00220516,-0.00005121
 ,0.00102770,-0.00105299,0.00002946,-0.00048681,-0.02175002,-0.02500843
 ,-0.02171313,0.05681252,0.09037867,0.09850625,0.00012689,0.00016044,-0
 .00014809,-0.14010142,0.12894713,-0.00596996,0.00053193,0.00062790,-0.
 00187392,-0.00099624,-0.00044432,0.00139040,-0.00770004,0.00424904,-0.
 00353126,0.00917132,-0.01283157,0.00098112,0.15411333,-0.00073027,0.00
 003287,0.00049956,0.12873569,-0.21647428,0.01181220,-0.00093135,0.0003
 5788,0.00076553,0.00179397,-0.00009109,-0.00014382,0.00336691,-0.00267
 764,0.00179924,0.01510103,-0.02110124,0.00041456,-0.14211491,0.2336676
 3,0.00134820,-0.00112766,0.00094966,-0.00693338,0.01303095,-0.04612706
 ,0.00021521,0.00100078,-0.00524890,0.00098965,0.00146557,-0.00057021,-
 0.02331328,0.02357519,-0.00017102,0.00881805,-0.01064704,0.00045907,0.
 01021852,-0.01249063,0.05175710,0.00110579,0.00085370,-0.00340317,-0.2
 3693966,-0.04438546,0.12088750,-0.00015948,0.00028544,-0.00070991,-0.0
 0092805,-0.00000318,-0.00017266,0.00673314,0.00140032,-0.00382977,-0.0
 1195110,-0.00206682,0.00712304,-0.01482935,-0.00445977,0.00880456,0.25
 602491,0.00042673,0.00097489,0.00248699,-0.04364516,-0.05560672,0.0290
 3248,-0.00032439,-0.00009566,-0.00020191,0.00118014,-0.00032613,-0.000
 26968,-0.00636158,-0.00285430,0.00170734,-0.02082181,-0.00505339,0.013
 62433,0.02126705,0.00621732,-0.01455683,0.04808566,0.05673778,-0.00053
 796,0.00194617,-0.00759963,0.11759859,0.02845382,-0.11946852,0.0006088
 8,0.00002344,0.00108218,-0.00222096,0.00103106,-0.00002347,0.02854358,
 0.00347572,-0.01493985,-0.01224953,-0.00186177,0.00770648,-0.00224529,
 -0.00139059,0.00047173,-0.12880243,-0.03158138,0.13188039,0.00042642,-
 0.00236563,-0.00041162,0.00091353,-0.00164711,0.00134454,-0.05061015,-
 0.03330491,-0.00983093,-0.00004883,-0.00049707,-0.00022320,0.00204337,
 0.03137611,0.00672144,-0.00041501,-0.00062242,-0.00077732,-0.00013199,
 -0.00019720,0.00000385,-0.00007803,-0.00005833,-0.00015070,0.05345209,
 0.00235459,0.00274888,-0.00157865,0.00011226,0.00237374,-0.00061028,-0
 .04246423,-0.26146596,-0.06873312,-0.00051628,0.00068519,-0.00004116,0
 .00470455,-0.02552287,-0.00058351,0.00062569,-0.00014952,0.00150099,0.
 00030250,0.00009756,0.00016441,-0.00004137,-0.00020221,0.00008019,0.03
 774668,0.29259312,0.00003956,-0.00032223,0.00000510,0.00054944,-0.0005
 0713,0.00057436,-0.01221968,-0.06434943,-0.06558193,0.00011065,-0.0000
 2708,0.00001971,0.00186568,0.00690374,0.00250036,-0.00008191,-0.000345
 50,0.00007062,0.00002486,-0.00018835,-0.00002057,0.00008455,0.00010290
 ,0.00001553,0.01318985,0.07353391,0.06648251,0.00151616,-0.00114166,0.
 00053396,-0.00395782,0.00247778,0.00044360,-0.05919033,-0.00108012,-0.
 05364263,0.00009530,0.00022150,0.00010517,-0.00510751,0.00155539,-0.02
 743326,0.00007783,-0.00013614,-0.00001767,-0.00018081,0.00023607,-0.00
 111276,0.00030783,0.00003064,0.00004777,-0.00160284,-0.00062166,-0.005
 51131,0.06060308,-0.00181104,0.00050894,-0.00058937,0.00322142,-0.0012
 7929,0.00048957,-0.00084887,-0.04313672,-0.00204198,-0.00007469,-0.000
 17955,-0.00005032,0.00398775,-0.00285652,0.02116583,0.00040150,-0.0000
 8396,0.00039607,0.00053480,-0.00000376,0.00080132,0.00015064,0.0000036
 3,-0.00041031,-0.00630319,-0.00026067,-0.03088953,-0.00284624,0.048407
 54,0.00062431,-0.00077368,0.00096022,-0.00111047,0.00040875,0.00074022
 ,-0.05472725,-0.00097653,-0.30669586,-0.00003233,0.00007241,0.00039843
 ,-0.00127971,0.00276577,-0.00619483,-0.00008412,-0.00012821,-0.0000776
 4,-0.00013190,-0.00009058,-0.00028593,-0.00003461,-0.00019410,0.000380
 45,-0.00148484,-0.00039192,-0.00864465,0.06157418,0.00005187,0.3322340
 2,-0.00609311,0.00343973,-0.00148754,0.00049267,-0.00053200,0.00050832
 ,-0.21502013,-0.07563293,0.10582801,0.00024958,-0.00087408,0.00079281,
 -0.01676355,-0.01011617,0.01566020,0.00007079,-0.00007109,-0.00002524,
 0.00048459,0.00001570,0.00001183,0.00017554,0.00035263,-0.00091540,-0.
 00395197,-0.00217412,0.00190235,0.00712361,0.00372363,-0.00347247,0.23
 387796,0.00514131,-0.00180158,0.00032297,-0.00028960,0.00003379,0.0000
 5327,-0.07791588,-0.07869553,0.05143361,0.00068889,0.00054340,-0.00050
 780,0.01336342,0.00594346,-0.01174068,-0.00015991,-0.00007778,0.000055
 82,-0.00000472,0.00007938,-0.00024846,0.00017635,0.00014479,0.00028095
 ,-0.02409528,-0.01070925,0.01607489,0.00140995,-0.00115045,-0.00068067
 ,0.08139584,0.08593799,-0.00073647,0.00047422,0.00075933,-0.00025161,-
 0.00033107,-0.00020181,0.10748391,0.05054522,-0.11692851,-0.00022941,0
 .00040024,0.00068869,-0.00361633,-0.00388851,0.00131881,-0.00003449,0.
 00013216,-0.00001639,-0.00005164,-0.00014163,0.00015471,-0.00047434,0.
 00031182,-0.00008691,-0.00837457,-0.00345945,0.00461317,0.02494911,0.0
 1106397,-0.01282522,-0.11871825,-0.05508438,0.12249152,-0.03068365,0.0
 0419518,-0.02305360,-0.00001595,-0.00036325,0.00051689,-0.00019818,0.0
 0019806,0.00068912,-0.10727439,-0.02978256,-0.09957685,0.00342804,0.00
 074606,-0.00605720,-0.00003090,0.00038157,0.00069793,-0.00066326,-0.00
 070619,0.00080179,0.00034071,-0.00001404,0.00005812,-0.00011044,0.0001
 0743,0.00000493,0.00022909,-0.00014009,0.00016902,-0.00020751,0.000090
 48,0.00016390,0.12648662,0.01910514,0.00259627,0.01964690,-0.00015686,
 0.00090375,-0.00056957,-0.00002800,-0.00013279,-0.00011723,-0.03158755
 ,-0.06592796,-0.05319424,-0.00112376,0.00047786,0.00176144,-0.00002894
 ,-0.00003609,-0.00042816,-0.00034346,-0.00064604,0.00001415,0.00018335
 ,-0.00037347,0.00003436,0.00008233,-0.00010400,-0.00000499,-0.00006115
 ,0.00001414,-0.00005072,0.00004190,-0.00003990,-0.00012817,0.02459975,
 0.06614922,-0.00601480,0.00584086,0.00482146,0.00062294,0.00099603,-0.
 00068764,-0.00006961,-0.00009296,0.00010868,-0.10508699,-0.05148176,-0
 .23677975,0.00126791,0.00024853,-0.00043076,-0.00003649,0.00013622,-0.
 00022887,0.00116124,-0.00029618,-0.00067704,0.00037784,-0.00049963,0.0
 0044468,-0.00000745,0.00007617,0.00000316,0.00006315,-0.00001809,0.000
 02803,-0.00007781,0.00004737,0.00000813,0.11866678,0.05222960,0.253405
 44,-0.03039812,-0.00227669,0.02625434,0.00002135,0.00055807,-0.0006367
 4,-0.00077876,-0.00041206,0.00113478,-0.12520160,-0.03728969,0.1137472
 6,-0.00139142,0.00406248,-0.00258865,-0.00006032,0.00015123,0.00018253
 ,0.00026280,-0.00043182,-0.00013765,0.00019415,-0.00019218,0.00017958,
 -0.00006081,0.00012378,0.00001007,0.00003222,-0.00002997,-0.00004877,-
 0.00035787,0.00026279,-0.00009025,0.01099117,0.00405283,-0.01201343,0.
 14978410,0.01994034,0.00348388,-0.01909676,0.00023044,-0.00026209,0.00
 028685,0.00067521,0.00051406,-0.00052546,-0.04471864,-0.06918990,0.060
 29146,0.00149826,-0.00188890,0.00122833,-0.00013871,0.00007328,0.00002
 810,-0.00022969,0.00020717,-0.00029240,-0.00008172,0.00018743,-0.00002
 829,-0.00007402,0.00000331,-0.00004000,-0.00001643,0.00002248,0.000006
 17,0.00025114,-0.00018938,0.00009686,0.00427774,0.00258270,-0.00736805
 ,0.03433801,0.06962173,-0.00170179,-0.00179043,0.00553055,0.00013550,0
 .00054612,-0.00009371,-0.00008349,0.00005376,0.00012343,0.12318663,0.0
 5442788,-0.22934016,-0.00168191,0.00015823,0.00078753,-0.00011993,0.00
 010881,0.00008503,0.00019816,-0.00052069,-0.00001182,0.00022993,-0.000
 20162,0.00009128,0.00000610,-0.00004168,-0.00001844,0.00002853,-0.0000
 2178,0.00001542,-0.00002590,-0.00000560,0.00000572,0.01428232,0.007822
 33,-0.02006255,-0.13208358,-0.05999680,0.24022599,-0.00483786,0.039703
 82,0.00252897,-0.00035161,-0.00049216,0.00053378,-0.00055404,-0.000256
 88,-0.00014083,-0.06824115,-0.07083970,-0.00128291,0.00566081,0.001756
 99,-0.00362438,0.00001963,0.00021198,-0.00007842,-0.00008774,0.0003221
 3,0.00028541,0.00000361,0.00007464,0.00008575,0.00017467,-0.00025983,0
 .00003095,0.00005419,0.00003435,0.00003896,-0.00008062,-0.00006364,-0.
 00001958,-0.00229136,-0.01473559,0.00114671,-0.00303689,-0.01595194,-0
 .00237058,0.07356837,0.01250315,-0.02360585,0.00033646,0.00009097,-0.0
 0061655,-0.00005458,0.00009341,0.00007087,-0.00040705,-0.06422013,-0.2
 8679997,-0.00827647,-0.00216708,0.00108833,0.00283486,-0.00018382,0.00
 016009,-0.00020518,-0.00012018,0.00033423,-0.00068934,-0.00009715,0.00
 024603,-0.00005336,-0.00003997,-0.00008733,0.00005880,-0.00002792,-0.0
 0000583,-0.00001855,0.00017981,-0.00001892,0.00000874,-0.00359014,-0.0
 0546368,0.00018189,-0.00291677,-0.00516575,-0.00053854,0.06049581,0.31
 986434,0.00087296,0.00369617,0.00230039,-0.00010519,-0.00067311,-0.000
 11889,0.00009474,-0.00001673,-0.00006104,-0.00192679,-0.00738779,-0.05
 338661,-0.00045915,-0.00129137,0.00056374,0.00004659,0.00010997,0.0000
 6115,-0.00002226,-0.00002862,-0.00067971,-0.00008051,0.00023927,0.0000
 4566,-0.00000515,0.00008410,-0.00001894,-0.00002785,0.00005274,-0.0000
 3268,0.00001909,-0.00000129,0.00001878,-0.00736317,-0.02701569,0.00004
 703,0.00609049,0.02541000,0.00266173,0.00286619,0.00682233,0.04859941\
 \0.00000065,0.00000084,0.00000049,-0.00000074,-0.00000110,-0.00000034,
 0.00000032,0.00000046,-0.00000028,0.00000065,0.00000047,0.00000054,-0.
 00000024,0.00000011,-0.00000009,-0.00000097,-0.00000158,0.00000065,-0.
 00000093,-0.00000122,-0.00000071,-0.00000109,-0.00000148,-0.00000108,0
 .00000024,0.00000021,0.00000073,0.00000090,0.00000143,-0.00000041,-0.0
 0000002,0.00000013,-0.00000110,-0.00000007,-0.00000022,0.00000104,0.00
 000097,0.00000128,0.00000107,0.00000033,0.00000065,-0.00000052\\\@


 WOE UNTO THEM THAT CALL EVIL GOOD, AND GOOD EVIL      
 Job cpu time:       0 days  1 hours 46 minutes 39.7 seconds.
 Elapsed time:       0 days  0 hours  5 minutes 20.4 seconds.
 File lengths (MBytes):  RWF=   1376 Int=      0 D2E=      0 Chk=     32 Scr=     32
 Normal termination of Gaussian 16 at Tue Apr  9 01:58:37 2019.
