 Entering Gaussian System, Link 0=g16
 Input=NPQBOSHSVUVOHJ-UHFFFAOYSA-N_36by10.0_tor03_a1.com
 Output=NPQBOSHSVUVOHJ-UHFFFAOYSA-N_36by10.0_tor03_a1.log
 Initial command:
 /shared/centos7/gaussian/g16/l1.exe "/scratch/underkoffler.c/gaussian_scratch/Gau-47864.inp" -scrdir="/scratch/underkoffler.c/gaussian_scratch/"
 Entering Link 1 = /shared/centos7/gaussian/g16/l1.exe PID=     47865.
  
 Copyright (c) 1988,1990,1992,1993,1995,1998,2003,2009,2016,
            Gaussian, Inc.  All Rights Reserved.
  
 This is part of the Gaussian(R) 16 program.  It is based on
 the Gaussian(R) 09 system (copyright 2009, Gaussian, Inc.),
 the Gaussian(R) 03 system (copyright 2003, Gaussian, Inc.),
 the Gaussian(R) 98 system (copyright 1998, Gaussian, Inc.),
 the Gaussian(R) 94 system (copyright 1995, Gaussian, Inc.),
 the Gaussian 92(TM) system (copyright 1992, Gaussian, Inc.),
 the Gaussian 90(TM) system (copyright 1990, Gaussian, Inc.),
 the Gaussian 88(TM) system (copyright 1988, Gaussian, Inc.),
 the Gaussian 86(TM) system (copyright 1986, Carnegie Mellon
 University), and the Gaussian 82(TM) system (copyright 1983,
 Carnegie Mellon University). Gaussian is a federally registered
 trademark of Gaussian, Inc.
  
 This software contains proprietary and confidential information,
 including trade secrets, belonging to Gaussian, Inc.
  
 This software is provided under written license and may be
 used, copied, transmitted, or stored only in accord with that
 written license.
  
 The following legend is applicable only to US Government
 contracts under FAR:
  
                    RESTRICTED RIGHTS LEGEND
  
 Use, reproduction and disclosure by the US Government is
 subject to restrictions as set forth in subparagraphs (a)
 and (c) of the Commercial Computer Software - Restricted
 Rights clause in FAR 52.227-19.
  
 Gaussian, Inc.
 340 Quinnipiac St., Bldg. 40, Wallingford CT 06492
  
  
 ---------------------------------------------------------------
 Warning -- This program may not be used in any manner that
 competes with the business of Gaussian, Inc. or will provide
 assistance to any competitor of Gaussian, Inc.  The licensee
 of this program is prohibited from giving any competitor of
 Gaussian, Inc. access to this program.  By using this program,
 the user acknowledges that Gaussian, Inc. is engaged in the
 business of creating and licensing software in the field of
 computational chemistry and represents and warrants to the
 licensee that it is not a competitor of Gaussian, Inc. and that
 it will not use this program in any manner prohibited above.
 ---------------------------------------------------------------
  

 Cite this work as:
 Gaussian 16, Revision A.03,
 M. J. Frisch, G. W. Trucks, H. B. Schlegel, G. E. Scuseria, 
 M. A. Robb, J. R. Cheeseman, G. Scalmani, V. Barone, 
 G. A. Petersson, H. Nakatsuji, X. Li, M. Caricato, A. V. Marenich, 
 J. Bloino, B. G. Janesko, R. Gomperts, B. Mennucci, H. P. Hratchian, 
 J. V. Ortiz, A. F. Izmaylov, J. L. Sonnenberg, D. Williams-Young, 
 F. Ding, F. Lipparini, F. Egidi, J. Goings, B. Peng, A. Petrone, 
 T. Henderson, D. Ranasinghe, V. G. Zakrzewski, J. Gao, N. Rega, 
 G. Zheng, W. Liang, M. Hada, M. Ehara, K. Toyota, R. Fukuda, 
 J. Hasegawa, M. Ishida, T. Nakajima, Y. Honda, O. Kitao, H. Nakai, 
 T. Vreven, K. Throssell, J. A. Montgomery, Jr., J. E. Peralta, 
 F. Ogliaro, M. J. Bearpark, J. J. Heyd, E. N. Brothers, K. N. Kudin, 
 V. N. Staroverov, T. A. Keith, R. Kobayashi, J. Normand, 
 K. Raghavachari, A. P. Rendell, J. C. Burant, S. S. Iyengar, 
 J. Tomasi, M. Cossi, J. M. Millam, M. Klene, C. Adamo, R. Cammi, 
 J. W. Ochterski, R. L. Martin, K. Morokuma, O. Farkas, 
 J. B. Foresman, and D. J. Fox, Gaussian, Inc., Wallingford CT, 2016.
 
 ******************************************
 Gaussian 16:  EM64L-G16RevA.03 25-Dec-2016
                11-Mar-2019 
 ******************************************
 %nprocshared=20
 Will use up to   20 processors via shared memory.
 %mem=5GB
 ----------------------------------------------
 #p m062x/6-311+g(2df,2p) Opt=(CalcFC,ModRedun)
 ----------------------------------------------
 1/10=4,18=120,19=15,26=3,38=1/1,3;
 2/9=110,12=2,17=6,18=5,40=1/2;
 3/5=4,6=6,7=214,11=2,25=1,30=1,71=2,74=-55,140=1/1,2,3;
 4//1;
 5/5=2,38=5/2;
 8/6=4,10=90,11=11/1;
 11/6=1,8=1,9=11,15=111,16=1/1,2,10;
 10/6=1,13=1/2;
 6/7=2,8=2,9=2,10=2,28=1/1;
 7/10=1,18=20,25=1/1,2,3,16;
 1/10=4,18=20,19=15,26=3/3(2);
 2/9=110/2;
 99//99;
 2/9=110/2;
 3/5=4,6=6,7=214,11=2,25=1,30=1,71=1,74=-55/1,2,3;
 4/5=5,16=3,69=1/1;
 5/5=2,38=5/2;
 7//1,2,3,16;
 1/18=20,19=15,26=3/3(-5);
 2/9=110/2;
 6/7=2,8=2,9=2,10=2,19=2,28=1/1;
 99/9=1/99;
 Leave Link    1 at Mon Mar 11 00:05:19 2019, MaxMem=   671088640 cpu:              30.7 elap:               1.6
 (Enter /shared/centos7/gaussian/g16/l101.exe)
 ----------------------------------------
 Gaussian Input Prepared from Scan Object
 ----------------------------------------
 Symbolic Z-matrix:
 Charge =  0 Multiplicity = 2
 O                    -0.15371   0.00882  -1.93224 
 O                    -0.64269   0.35751   0.22325 
 C                     0.48037  -1.68605  -0.41661 
 C                    -0.78802   1.24702  -2.24501 
 C                    -0.16102  -0.32675  -0.63485 
 C                    -0.42412  -2.76582  -0.90179 
 H                     1.42538  -1.70217  -0.96144 
 H                     0.67374  -1.77629   0.64929 
 H                    -0.29212   2.06681  -1.72924 
 H                    -1.83347   1.22167  -1.94407 
 H                    -0.70176   1.36357  -3.31997 
 H                    -1.16852  -3.1841   -0.24315 
 H                    -0.47978  -2.99124  -1.95481 
 
 The following ModRedundant input section has been read:
 B       1       4 B                                                           
 B       4       9 B                                                           
 B       6      12 B                                                           
 B       6      13 B                                                           
 B       3       6 B                                                           
 B       3       7 B                                                           
 B       1       5 B                                                           
 B       4      10 B                                                           
 B       3       8 B                                                           
 B       4      11 B                                                           
 B       2       5 B                                                           
 B       3       5 B                                                           
 D       5       1       4      10 S  36 10.000                                
 
 ITRead=  0  0  0  0  0  0  0  0  0  0  0  0  0
 MicOpt= -1 -1 -1 -1 -1 -1 -1 -1 -1 -1 -1 -1 -1
 NAtoms=     13 NQM=       13 NQMF=       0 NMMI=      0 NMMIF=      0
                NMic=       0 NMicF=      0.
                    Isotopes and Nuclear Properties:
 (Nuclear quadrupole moments (NQMom) in fm**2, nuclear magnetic moments (NMagM)
  in nuclear magnetons)

  Atom         1           2           3           4           5           6           7           8           9          10
 IAtWgt=          16          16          12          12          12          12           1           1           1           1
 AtmWgt=  15.9949146  15.9949146  12.0000000  12.0000000  12.0000000  12.0000000   1.0078250   1.0078250   1.0078250   1.0078250
 NucSpn=           0           0           0           0           0           0           1           1           1           1
 AtZEff=  -0.0000000  -0.0000000  -0.0000000  -0.0000000  -0.0000000  -0.0000000  -0.0000000  -0.0000000  -0.0000000  -0.0000000
 NQMom=    0.0000000   0.0000000   0.0000000   0.0000000   0.0000000   0.0000000   0.0000000   0.0000000   0.0000000   0.0000000
 NMagM=    0.0000000   0.0000000   0.0000000   0.0000000   0.0000000   0.0000000   2.7928460   2.7928460   2.7928460   2.7928460
 AtZNuc=   8.0000000   8.0000000   6.0000000   6.0000000   6.0000000   6.0000000   1.0000000   1.0000000   1.0000000   1.0000000

  Atom        11          12          13
 IAtWgt=           1           1           1
 AtmWgt=   1.0078250   1.0078250   1.0078250
 NucSpn=           1           1           1
 AtZEff=  -0.0000000  -0.0000000  -0.0000000
 NQMom=    0.0000000   0.0000000   0.0000000
 NMagM=    2.7928460   2.7928460   2.7928460
 AtZNuc=   1.0000000   1.0000000   1.0000000
 Leave Link  101 at Mon Mar 11 00:05:19 2019, MaxMem=   671088640 cpu:               5.5 elap:               0.3
 (Enter /shared/centos7/gaussian/g16/l103.exe)

 GradGradGradGradGradGradGradGradGradGradGradGradGradGradGradGradGradGrad
 Berny optimization.
 Initialization pass.
                           ----------------------------
                           !    Initial Parameters    !
                           ! (Angstroms and Degrees)  !
 --------------------------                            --------------------------
 ! Name  Definition              Value          Derivative Info.                !
 --------------------------------------------------------------------------------
 ! R1    R(1,4)                  1.4259         calculate D2E/DX2 analytically  !
 ! R2    R(1,5)                  1.3401         calculate D2E/DX2 analytically  !
 ! R3    R(2,5)                  1.1986         calculate D2E/DX2 analytically  !
 ! R4    R(3,5)                  1.5188         calculate D2E/DX2 analytically  !
 ! R5    R(3,6)                  1.4898         calculate D2E/DX2 analytically  !
 ! R6    R(3,7)                  1.0909         calculate D2E/DX2 analytically  !
 ! R7    R(3,8)                  1.0871         calculate D2E/DX2 analytically  !
 ! R8    R(4,9)                  1.0881         calculate D2E/DX2 analytically  !
 ! R9    R(4,10)                 1.0882         calculate D2E/DX2 analytically  !
 ! R10   R(4,11)                 1.0847         calculate D2E/DX2 analytically  !
 ! R11   R(6,12)                 1.0784         calculate D2E/DX2 analytically  !
 ! R12   R(6,13)                 1.0783         calculate D2E/DX2 analytically  !
 ! A1    A(4,1,5)              115.3006         calculate D2E/DX2 analytically  !
 ! A2    A(5,3,6)              110.2116         calculate D2E/DX2 analytically  !
 ! A3    A(5,3,7)              107.8956         calculate D2E/DX2 analytically  !
 ! A4    A(5,3,8)              106.8771         calculate D2E/DX2 analytically  !
 ! A5    A(6,3,7)              110.6445         calculate D2E/DX2 analytically  !
 ! A6    A(6,3,8)              111.5406         calculate D2E/DX2 analytically  !
 ! A7    A(7,3,8)              109.5349         calculate D2E/DX2 analytically  !
 ! A8    A(1,4,9)              110.3354         calculate D2E/DX2 analytically  !
 ! A9    A(1,4,10)             110.2716         calculate D2E/DX2 analytically  !
 ! A10   A(1,4,11)             105.9804         calculate D2E/DX2 analytically  !
 ! A11   A(9,4,10)             108.9229         calculate D2E/DX2 analytically  !
 ! A12   A(9,4,11)             110.6437         calculate D2E/DX2 analytically  !
 ! A13   A(10,4,11)            110.669          calculate D2E/DX2 analytically  !
 ! A14   A(1,5,2)              123.5286         calculate D2E/DX2 analytically  !
 ! A15   A(1,5,3)              111.1569         calculate D2E/DX2 analytically  !
 ! A16   A(2,5,3)              125.2952         calculate D2E/DX2 analytically  !
 ! A17   A(3,6,12)             120.0882         calculate D2E/DX2 analytically  !
 ! A18   A(3,6,13)             120.059          calculate D2E/DX2 analytically  !
 ! A19   A(12,6,13)            118.6667         calculate D2E/DX2 analytically  !
 ! D1    D(5,1,4,9)             60.5912         calculate D2E/DX2 analytically  !
 ! D2    D(5,1,4,10)           -59.7782         Scan                            !
 ! D3    D(5,1,4,11)          -179.5913         calculate D2E/DX2 analytically  !
 ! D4    D(4,1,5,2)             -1.0583         calculate D2E/DX2 analytically  !
 ! D5    D(4,1,5,3)            177.4172         calculate D2E/DX2 analytically  !
 ! D6    D(6,3,5,1)            -73.0479         calculate D2E/DX2 analytically  !
 ! D7    D(6,3,5,2)            105.3951         calculate D2E/DX2 analytically  !
 ! D8    D(7,3,5,1)             47.8617         calculate D2E/DX2 analytically  !
 ! D9    D(7,3,5,2)           -133.6953         calculate D2E/DX2 analytically  !
 ! D10   D(8,3,5,1)            165.5825         calculate D2E/DX2 analytically  !
 ! D11   D(8,3,5,2)            -15.9746         calculate D2E/DX2 analytically  !
 ! D12   D(5,3,6,12)           -87.8958         calculate D2E/DX2 analytically  !
 ! D13   D(5,3,6,13)            79.4955         calculate D2E/DX2 analytically  !
 ! D14   D(7,3,6,12)           152.8539         calculate D2E/DX2 analytically  !
 ! D15   D(7,3,6,13)           -39.7547         calculate D2E/DX2 analytically  !
 ! D16   D(8,3,6,12)            30.6539         calculate D2E/DX2 analytically  !
 ! D17   D(8,3,6,13)          -161.9547         calculate D2E/DX2 analytically  !
 --------------------------------------------------------------------------------
 Trust Radius=3.00D-01 FncErr=1.00D-07 GrdErr=1.00D-06 EigMax=2.50D+02 EigMin=1.00D-04
 Number of optimizations in scan=  37
 Number of steps in this run=     58 maximum allowed number of steps=    100.
 GradGradGradGradGradGradGradGradGradGradGradGradGradGradGradGradGradGrad

 Leave Link  103 at Mon Mar 11 00:05:19 2019, MaxMem=   671088640 cpu:               0.2 elap:               0.0
 (Enter /shared/centos7/gaussian/g16/l202.exe)
                          Input orientation:                          
 ---------------------------------------------------------------------
 Center     Atomic      Atomic             Coordinates (Angstroms)
 Number     Number       Type             X           Y           Z
 ---------------------------------------------------------------------
      1          8           0       -0.153710    0.008818   -1.932237
      2          8           0       -0.642694    0.357506    0.223245
      3          6           0        0.480371   -1.686046   -0.416615
      4          6           0       -0.788017    1.247016   -2.245014
      5          6           0       -0.161022   -0.326755   -0.634854
      6          6           0       -0.424117   -2.765819   -0.901785
      7          1           0        1.425383   -1.702169   -0.961444
      8          1           0        0.673739   -1.776290    0.649289
      9          1           0       -0.292125    2.066815   -1.729238
     10          1           0       -1.833466    1.221666   -1.944073
     11          1           0       -0.701761    1.363568   -3.319966
     12          1           0       -1.168523   -3.184101   -0.243149
     13          1           0       -0.479784   -2.991243   -1.954810
 ---------------------------------------------------------------------
                    Distance matrix (angstroms):
                    1          2          3          4          5
     1  O    0.000000
     2  O    2.237587   0.000000
     3  C    2.360452   2.418016   0.000000
     4  C    1.425941   2.627670   3.681671   0.000000
     5  C    1.340099   1.198564   1.518778   2.337197   0.000000
     6  C    2.972131   3.326955   1.489765   4.247297   2.467692
     7  H    2.522588   3.150030   1.090937   3.904405   2.124878
     8  H    3.245853   2.543147   1.087054   4.433294   2.108791
     9  H    2.072611   2.618554   4.050147   1.088119   2.635155
    10  H    2.071888   2.619538   4.017681   1.088196   2.628446
    11  H    2.015315   3.683747   4.373446   1.084688   3.218604
    12  H    3.752013   3.610679   2.234528   4.877196   3.054983
    13  H    3.017815   3.998073   2.234163   4.259351   2.990551
                    6          7          8          9         10
     6  C    0.000000
     7  H    2.134375   0.000000
     8  H    2.142495   1.779022   0.000000
     9  H    4.904737   4.212431   4.621660   0.000000
    10  H    4.355762   4.487144   4.690346   1.770921   0.000000
    11  H    4.793382   4.414307   5.244587   1.786833   1.787169
    12  H    1.078380   3.072526   2.484413   5.527083   4.769285
    13  H    1.078321   2.505623   3.096458   5.066562   4.425063
                   11         12         13
    11  H    0.000000
    12  H    5.510531   0.000000
    13  H    4.569169   1.855085   0.000000
 Stoichiometry    C4H7O2(2)
 Framework group  C1[X(C4H7O2)]
 Deg. of freedom    33
 Full point group                 C1      NOp   1
 Largest Abelian subgroup         C1      NOp   1
 Largest concise Abelian subgroup C1      NOp   1
                         Standard orientation:                         
 ---------------------------------------------------------------------
 Center     Atomic      Atomic             Coordinates (Angstroms)
 Number     Number       Type             X           Y           Z
 ---------------------------------------------------------------------
      1          8           0        0.754135   -0.665018    0.282784
      2          8           0        0.409205    1.468735   -0.295939
      3          6           0       -1.441252    0.160717    0.547687
      4          6           0        2.110695   -0.527133   -0.134398
      5          6           0       -0.004524    0.429758    0.135236
      6          6           0       -2.120087   -0.685279   -0.473524
      7          1           0       -1.423521   -0.343674    1.514857
      8          1           0       -1.926335    1.128032    0.651041
      9          1           0        2.606527    0.250859    0.442561
     10          1           0        2.155905   -0.266683   -1.189999
     11          1           0        2.576928   -1.490382    0.042590
     12          1           0       -2.611532   -0.225705   -1.316244
     13          1           0       -1.953680   -1.750562   -0.489574
 ---------------------------------------------------------------------
 Rotational constants (GHZ):           6.6806420           2.5979531           2.1163575
 Leave Link  202 at Mon Mar 11 00:05:19 2019, MaxMem=   671088640 cpu:               0.2 elap:               0.0
 (Enter /shared/centos7/gaussian/g16/l301.exe)
 Standard basis: 6-311+G(2df,2p) (5D, 7F)
 Ernie: Thresh=  0.10000D-02 Tol=  0.10000D-05 Strict=F.
 There are   297 symmetry adapted cartesian basis functions of A   symmetry.
 There are   267 symmetry adapted basis functions of A   symmetry.
   267 basis functions,   389 primitive gaussians,   297 cartesian basis functions
    24 alpha electrons       23 beta electrons
       nuclear repulsion energy       238.0263216999 Hartrees.
 IExCor= 4336 DFT=T Ex+Corr=M062X ExCW=0 ScaHFX=  0.540000
 ScaDFX=  1.000000  1.000000  1.000000  1.000000 ScalE2=  1.000000  1.000000
 IRadAn=      5 IRanWt=     -1 IRanGd=            0 ICorTp=0 IEmpDi=  4
 NAtoms=   13 NActive=   13 NUniq=   13 SFac= 1.00D+00 NAtFMM=   60 NAOKFM=F Big=F
 Integral buffers will be    131072 words long.
 Raffenetti 2 integral format.
 Two-electron integral symmetry is turned on.
 Leave Link  301 at Mon Mar 11 00:05:19 2019, MaxMem=   671088640 cpu:               0.9 elap:               0.1
 (Enter /shared/centos7/gaussian/g16/l302.exe)
 NPDir=0 NMtPBC=     1 NCelOv=     1 NCel=       1 NClECP=     1 NCelD=      1
         NCelK=      1 NCelE2=     1 NClLst=     1 CellRange=     0.0.
 One-electron integrals computed using PRISM.
 One-electron integral symmetry used in STVInt
 NBasis=   267 RedAO= T EigKep=  3.57D-05  NBF=   267
 NBsUse=   267 1.00D-06 EigRej= -1.00D+00 NBFU=   267
 Precomputing XC quadrature grid using
 IXCGrd= 4 IRadAn=           5 IRanWt=          -1 IRanGd=           0 AccXCQ= 0.00D+00.
 Generated NRdTot=       0 NPtTot=           0 NUsed=           0 NTot=          32
 NSgBfM=   297   297   297   297   297 MxSgAt=    13 MxSgA2=    13.
 Leave Link  302 at Mon Mar 11 00:05:20 2019, MaxMem=   671088640 cpu:               5.9 elap:               0.3
 (Enter /shared/centos7/gaussian/g16/l303.exe)
 DipDrv:  MaxL=1.
 Leave Link  303 at Mon Mar 11 00:05:20 2019, MaxMem=   671088640 cpu:               0.5 elap:               0.0
 (Enter /shared/centos7/gaussian/g16/l401.exe)
 ExpMin= 4.38D-02 ExpMax= 8.59D+03 ExpMxC= 1.30D+03 IAcc=3 IRadAn=         5 AccDes= 0.00D+00
 Harris functional with IExCor= 1009 and IRadAn=       5 diagonalized for initial guess.
 HarFok:  IExCor= 1009 AccDes= 0.00D+00 IRadAn=         5 IDoV= 1 UseB2=F ITyADJ=14
 ICtDFT=  3500011 ScaDFX=  1.000000  1.000000  1.000000  1.000000
 FoFCou: FMM=F IPFlag=           0 FMFlag=      100000 FMFlg1=           0
         NFxFlg=           0 DoJE=T BraDBF=F KetDBF=T FulRan=T
         wScrn=  0.000000 ICntrl=       500 IOpCl=  0 I1Cent=   200000004 NGrid=           0
         NMat0=    1 NMatS0=      1 NMatT0=    0 NMatD0=    1 NMtDS0=    0 NMtDT0=    0
 Petite list used in FoFCou.
 Harris En= -306.860162320007    
 JPrj=0 DoOrth=F DoCkMO=F.
 Initial guess <Sx>= 0.0000 <Sy>= 0.0000 <Sz>= 0.5000 <S**2>= 0.7500 S= 0.5000
 Leave Link  401 at Mon Mar 11 00:05:20 2019, MaxMem=   671088640 cpu:              16.2 elap:               0.8
 (Enter /shared/centos7/gaussian/g16/l502.exe)
 Integral symmetry usage will be decided dynamically.
 UHF open shell SCF:
 Using DIIS extrapolation, IDIIS=  1040.
 NGot=   671088640 LenX=   670903575 LenY=   670814925
 Requested convergence on RMS density matrix=1.00D-08 within 128 cycles.
 Requested convergence on MAX density matrix=1.00D-06.
 Requested convergence on             energy=1.00D-06.
 No special actions if energy rises.
 Fock matrices will be formed incrementally for  20 cycles.

 Cycle   1  Pass 1  IDiag  1:
 FoFJK:  IHMeth= 1 ICntrl=       0 DoSepK=F KAlg= 0 I1Cent=           0 FoldK=F
 IRaf= 970000000 NMat=       1 IRICut=       1 DoRegI=T DoRafI=F ISym2E= 0 IDoP0=0 IntGTp=1.
 FoFCou: FMM=F IPFlag=           0 FMFlag=      100000 FMFlg1=           0
         NFxFlg=           0 DoJE=F BraDBF=F KetDBF=F FulRan=T
         wScrn=  0.000000 ICntrl=         0 IOpCl=  1 I1Cent=           0 NGrid=           0
         NMat0=    1 NMatS0=      1 NMatT0=    0 NMatD0=    1 NMtDS0=    0 NMtDT0=    0
 Symmetry not used in FoFCou.
 E= -306.827096660425    
 DIIS: error= 2.10D-02 at cycle   1 NSaved=   1.
 NSaved= 1 IEnMin= 1 EnMin= -306.827096660425     IErMin= 1 ErrMin= 2.10D-02
 ErrMax= 2.10D-02  0.00D+00 EMaxC= 1.00D-01 BMatC= 9.84D-01 BMatP= 9.84D-01
 IDIUse=3 WtCom= 7.90D-01 WtEn= 2.10D-01
 Coeff-Com:  0.100D+01
 Coeff-En:   0.100D+01
 Coeff:      0.100D+01
 Gap=     0.279 Goal=   None    Shift=    0.000
 Gap=     0.373 Goal=   None    Shift=    0.000
 GapD=    0.279 DampG=1.000 DampE=0.500 DampFc=0.5000 IDamp=-1.
 Damping current iteration by 5.00D-01
 RMSDP=2.51D-03 MaxDP=8.73D-02              OVMax= 1.79D-01

 Cycle   2  Pass 1  IDiag  1:
 RMSU=  1.24D-03    CP:  9.83D-01
 E= -306.910800377743     Delta-E=       -0.083703717318 Rises=F Damp=T
 DIIS: error= 5.70D-03 at cycle   2 NSaved=   2.
 NSaved= 2 IEnMin= 2 EnMin= -306.910800377743     IErMin= 2 ErrMin= 5.70D-03
 ErrMax= 5.70D-03  0.00D+00 EMaxC= 1.00D-01 BMatC= 8.91D-02 BMatP= 9.84D-01
 IDIUse=3 WtCom= 9.43D-01 WtEn= 5.70D-02
 Coeff-Com: -0.345D-01 0.103D+01
 Coeff-En:   0.000D+00 0.100D+01
 Coeff:     -0.326D-01 0.103D+01
 Gap=     0.280 Goal=   None    Shift=    0.000
 Gap=     0.343 Goal=   None    Shift=    0.000
 RMSDP=8.97D-04 MaxDP=3.89D-02 DE=-8.37D-02 OVMax= 8.84D-02

 Cycle   3  Pass 1  IDiag  1:
 RMSU=  8.78D-04    CP:  9.67D-01  1.07D+00
 E= -306.992570380734     Delta-E=       -0.081770002991 Rises=F Damp=F
 DIIS: error= 5.34D-03 at cycle   3 NSaved=   3.
 NSaved= 3 IEnMin= 3 EnMin= -306.992570380734     IErMin= 3 ErrMin= 5.34D-03
 ErrMax= 5.34D-03  0.00D+00 EMaxC= 1.00D-01 BMatC= 5.87D-02 BMatP= 8.91D-02
 IDIUse=3 WtCom= 9.47D-01 WtEn= 5.34D-02
 Coeff-Com: -0.970D-01 0.488D+00 0.609D+00
 Coeff-En:   0.000D+00 0.000D+00 0.100D+01
 Coeff:     -0.918D-01 0.462D+00 0.630D+00
 Gap=     0.293 Goal=   None    Shift=    0.000
 Gap=     0.312 Goal=   None    Shift=    0.000
 RMSDP=3.87D-04 MaxDP=1.47D-02 DE=-8.18D-02 OVMax= 4.32D-02

 Cycle   4  Pass 1  IDiag  1:
 RMSU=  3.32D-04    CP:  9.68D-01  1.18D+00  8.43D-01
 E= -307.001535151101     Delta-E=       -0.008964770367 Rises=F Damp=F
 DIIS: error= 1.70D-03 at cycle   4 NSaved=   4.
 NSaved= 4 IEnMin= 4 EnMin= -307.001535151101     IErMin= 4 ErrMin= 1.70D-03
 ErrMax= 1.70D-03  0.00D+00 EMaxC= 1.00D-01 BMatC= 9.53D-03 BMatP= 5.87D-02
 IDIUse=3 WtCom= 9.83D-01 WtEn= 1.70D-02
 Coeff-Com: -0.349D-01 0.830D-01 0.323D+00 0.629D+00
 Coeff-En:   0.000D+00 0.000D+00 0.117D+00 0.883D+00
 Coeff:     -0.343D-01 0.816D-01 0.320D+00 0.633D+00
 Gap=     0.288 Goal=   None    Shift=    0.000
 Gap=     0.318 Goal=   None    Shift=    0.000
 RMSDP=1.34D-04 MaxDP=4.74D-03 DE=-8.96D-03 OVMax= 1.40D-02

 Cycle   5  Pass 1  IDiag  1:
 RMSU=  7.42D-05    CP:  9.66D-01  1.16D+00  9.15D-01  7.37D-01
 E= -307.003387736088     Delta-E=       -0.001852584987 Rises=F Damp=F
 DIIS: error= 4.32D-04 at cycle   5 NSaved=   5.
 NSaved= 5 IEnMin= 5 EnMin= -307.003387736088     IErMin= 5 ErrMin= 4.32D-04
 ErrMax= 4.32D-04  0.00D+00 EMaxC= 1.00D-01 BMatC= 3.33D-04 BMatP= 9.53D-03
 IDIUse=3 WtCom= 9.96D-01 WtEn= 4.32D-03
 Coeff-Com: -0.764D-02 0.829D-02 0.929D-01 0.241D+00 0.666D+00
 Coeff-En:   0.000D+00 0.000D+00 0.000D+00 0.000D+00 0.100D+01
 Coeff:     -0.761D-02 0.826D-02 0.925D-01 0.240D+00 0.667D+00
 Gap=     0.288 Goal=   None    Shift=    0.000
 Gap=     0.318 Goal=   None    Shift=    0.000
 RMSDP=3.32D-05 MaxDP=1.32D-03 DE=-1.85D-03 OVMax= 3.37D-03

 Cycle   6  Pass 1  IDiag  1:
 RMSU=  3.04D-05    CP:  9.66D-01  1.16D+00  9.25D-01  7.65D-01  1.01D+00
 E= -307.003468030427     Delta-E=       -0.000080294339 Rises=F Damp=F
 DIIS: error= 1.78D-04 at cycle   6 NSaved=   6.
 NSaved= 6 IEnMin= 6 EnMin= -307.003468030427     IErMin= 6 ErrMin= 1.78D-04
 ErrMax= 1.78D-04  0.00D+00 EMaxC= 1.00D-01 BMatC= 6.42D-05 BMatP= 3.33D-04
 IDIUse=3 WtCom= 9.98D-01 WtEn= 1.78D-03
 Coeff-Com:  0.448D-02-0.149D-01-0.317D-01-0.470D-01 0.242D+00 0.847D+00
 Coeff-En:   0.000D+00 0.000D+00 0.000D+00 0.000D+00 0.000D+00 0.100D+01
 Coeff:      0.447D-02-0.149D-01-0.316D-01-0.469D-01 0.241D+00 0.848D+00
 Gap=     0.289 Goal=   None    Shift=    0.000
 Gap=     0.319 Goal=   None    Shift=    0.000
 RMSDP=2.17D-05 MaxDP=8.47D-04 DE=-8.03D-05 OVMax= 3.23D-03

 Cycle   7  Pass 1  IDiag  1:
 RMSU=  1.50D-05    CP:  9.66D-01  1.16D+00  9.32D-01  7.76D-01  1.17D+00
                    CP:  1.23D+00
 E= -307.003492411536     Delta-E=       -0.000024381109 Rises=F Damp=F
 DIIS: error= 6.13D-05 at cycle   7 NSaved=   7.
 NSaved= 7 IEnMin= 7 EnMin= -307.003492411536     IErMin= 7 ErrMin= 6.13D-05
 ErrMax= 6.13D-05  0.00D+00 EMaxC= 1.00D-01 BMatC= 7.88D-06 BMatP= 6.42D-05
 IDIUse=1 WtCom= 1.00D+00 WtEn= 0.00D+00
 Coeff-Com:  0.270D-02-0.530D-02-0.250D-01-0.624D-01-0.699D-01 0.219D+00
 Coeff-Com:  0.941D+00
 Coeff:      0.270D-02-0.530D-02-0.250D-01-0.624D-01-0.699D-01 0.219D+00
 Coeff:      0.941D+00
 Gap=     0.289 Goal=   None    Shift=    0.000
 Gap=     0.320 Goal=   None    Shift=    0.000
 RMSDP=1.07D-05 MaxDP=6.14D-04 DE=-2.44D-05 OVMax= 1.81D-03

 Cycle   8  Pass 1  IDiag  1:
 RMSU=  5.66D-06    CP:  9.66D-01  1.16D+00  9.33D-01  7.75D-01  1.25D+00
                    CP:  1.42D+00  1.26D+00
 E= -307.003496289286     Delta-E=       -0.000003877750 Rises=F Damp=F
 DIIS: error= 2.13D-05 at cycle   8 NSaved=   8.
 NSaved= 8 IEnMin= 8 EnMin= -307.003496289286     IErMin= 8 ErrMin= 2.13D-05
 ErrMax= 2.13D-05  0.00D+00 EMaxC= 1.00D-01 BMatC= 8.08D-07 BMatP= 7.88D-06
 IDIUse=1 WtCom= 1.00D+00 WtEn= 0.00D+00
 Coeff-Com:  0.350D-03-0.285D-03-0.424D-02-0.146D-01-0.437D-01-0.304D-02
 Coeff-Com:  0.286D+00 0.779D+00
 Coeff:      0.350D-03-0.285D-03-0.424D-02-0.146D-01-0.437D-01-0.304D-02
 Coeff:      0.286D+00 0.779D+00
 Gap=     0.289 Goal=   None    Shift=    0.000
 Gap=     0.320 Goal=   None    Shift=    0.000
 RMSDP=2.44D-06 MaxDP=1.01D-04 DE=-3.88D-06 OVMax= 2.96D-04

 Cycle   9  Pass 1  IDiag  1:
 RMSU=  1.62D-06    CP:  9.66D-01  1.16D+00  9.33D-01  7.75D-01  1.26D+00
                    CP:  1.46D+00  1.35D+00  1.05D+00
 E= -307.003496573479     Delta-E=       -0.000000284193 Rises=F Damp=F
 DIIS: error= 6.69D-06 at cycle   9 NSaved=   9.
 NSaved= 9 IEnMin= 9 EnMin= -307.003496573479     IErMin= 9 ErrMin= 6.69D-06
 ErrMax= 6.69D-06  0.00D+00 EMaxC= 1.00D-01 BMatC= 7.90D-08 BMatP= 8.08D-07
 IDIUse=1 WtCom= 1.00D+00 WtEn= 0.00D+00
 Coeff-Com: -0.370D-03 0.804D-03 0.298D-02 0.690D-02 0.180D-02-0.273D-01
 Coeff-Com: -0.924D-01 0.118D+00 0.990D+00
 Coeff:     -0.370D-03 0.804D-03 0.298D-02 0.690D-02 0.180D-02-0.273D-01
 Coeff:     -0.924D-01 0.118D+00 0.990D+00
 Gap=     0.289 Goal=   None    Shift=    0.000
 Gap=     0.320 Goal=   None    Shift=    0.000
 RMSDP=1.17D-06 MaxDP=5.85D-05 DE=-2.84D-07 OVMax= 1.38D-04

 Cycle  10  Pass 1  IDiag  1:
 RMSU=  7.56D-07    CP:  9.66D-01  1.16D+00  9.33D-01  7.75D-01  1.25D+00
                    CP:  1.46D+00  1.38D+00  1.16D+00  1.22D+00
 E= -307.003496618116     Delta-E=       -0.000000044638 Rises=F Damp=F
 DIIS: error= 1.77D-06 at cycle  10 NSaved=  10.
 NSaved=10 IEnMin=10 EnMin= -307.003496618116     IErMin=10 ErrMin= 1.77D-06
 ErrMax= 1.77D-06  0.00D+00 EMaxC= 1.00D-01 BMatC= 7.46D-09 BMatP= 7.90D-08
 IDIUse=1 WtCom= 1.00D+00 WtEn= 0.00D+00
 Coeff-Com: -0.665D-04 0.109D-03 0.591D-03 0.193D-02 0.367D-02-0.232D-02
 Coeff-Com: -0.337D-01-0.546D-01 0.853D-01 0.999D+00
 Coeff:     -0.665D-04 0.109D-03 0.591D-03 0.193D-02 0.367D-02-0.232D-02
 Coeff:     -0.337D-01-0.546D-01 0.853D-01 0.999D+00
 Gap=     0.289 Goal=   None    Shift=    0.000
 Gap=     0.320 Goal=   None    Shift=    0.000
 RMSDP=4.48D-07 MaxDP=2.56D-05 DE=-4.46D-08 OVMax= 6.17D-05

 Cycle  11  Pass 1  IDiag  1:
 RMSU=  2.99D-07    CP:  9.66D-01  1.16D+00  9.33D-01  7.75D-01  1.25D+00
                    CP:  1.46D+00  1.38D+00  1.18D+00  1.37D+00  1.10D+00
 E= -307.003496624223     Delta-E=       -0.000000006106 Rises=F Damp=F
 DIIS: error= 8.43D-07 at cycle  11 NSaved=  11.
 NSaved=11 IEnMin=11 EnMin= -307.003496624223     IErMin=11 ErrMin= 8.43D-07
 ErrMax= 8.43D-07  0.00D+00 EMaxC= 1.00D-01 BMatC= 1.25D-09 BMatP= 7.46D-09
 IDIUse=1 WtCom= 1.00D+00 WtEn= 0.00D+00
 Coeff-Com:  0.457D-04-0.978D-04-0.376D-03-0.785D-03 0.208D-03 0.326D-02
 Coeff-Com:  0.997D-02-0.188D-01-0.139D+00 0.874D-01 0.106D+01
 Coeff:      0.457D-04-0.978D-04-0.376D-03-0.785D-03 0.208D-03 0.326D-02
 Coeff:      0.997D-02-0.188D-01-0.139D+00 0.874D-01 0.106D+01
 Gap=     0.289 Goal=   None    Shift=    0.000
 Gap=     0.320 Goal=   None    Shift=    0.000
 RMSDP=1.90D-07 MaxDP=7.99D-06 DE=-6.11D-09 OVMax= 3.29D-05

 Cycle  12  Pass 1  IDiag  1:
 RMSU=  7.94D-08    CP:  9.66D-01  1.16D+00  9.33D-01  7.75D-01  1.26D+00
                    CP:  1.47D+00  1.38D+00  1.19D+00  1.42D+00  1.25D+00
                    CP:  1.36D+00
 E= -307.003496625489     Delta-E=       -0.000000001266 Rises=F Damp=F
 DIIS: error= 4.18D-07 at cycle  12 NSaved=  12.
 NSaved=12 IEnMin=12 EnMin= -307.003496625489     IErMin=12 ErrMin= 4.18D-07
 ErrMax= 4.18D-07  0.00D+00 EMaxC= 1.00D-01 BMatC= 2.04D-10 BMatP= 1.25D-09
 IDIUse=1 WtCom= 1.00D+00 WtEn= 0.00D+00
 Coeff-Com:  0.124D-04-0.246D-04-0.116D-03-0.318D-03-0.416D-03 0.584D-03
 Coeff-Com:  0.533D-02 0.550D-02-0.244D-01-0.122D+00 0.110D+00 0.103D+01
 Coeff:      0.124D-04-0.246D-04-0.116D-03-0.318D-03-0.416D-03 0.584D-03
 Coeff:      0.533D-02 0.550D-02-0.244D-01-0.122D+00 0.110D+00 0.103D+01
 Gap=     0.289 Goal=   None    Shift=    0.000
 Gap=     0.320 Goal=   None    Shift=    0.000
 RMSDP=7.44D-08 MaxDP=2.44D-06 DE=-1.27D-09 OVMax= 1.24D-05

 Cycle  13  Pass 1  IDiag  1:
 RMSU=  3.47D-08    CP:  9.66D-01  1.16D+00  9.33D-01  7.75D-01  1.26D+00
                    CP:  1.47D+00  1.38D+00  1.19D+00  1.42D+00  1.28D+00
                    CP:  1.52D+00  1.35D+00
 E= -307.003496625701     Delta-E=       -0.000000000212 Rises=F Damp=F
 DIIS: error= 1.71D-07 at cycle  13 NSaved=  13.
 NSaved=13 IEnMin=13 EnMin= -307.003496625701     IErMin=13 ErrMin= 1.71D-07
 ErrMax= 1.71D-07  0.00D+00 EMaxC= 1.00D-01 BMatC= 4.86D-11 BMatP= 2.04D-10
 IDIUse=1 WtCom= 1.00D+00 WtEn= 0.00D+00
 Coeff-Com: -0.614D-05 0.138D-04 0.451D-04 0.761D-04-0.139D-03-0.453D-03
 Coeff-Com: -0.640D-03 0.473D-02 0.220D-01-0.538D-01-0.187D+00 0.283D+00
 Coeff-Com:  0.932D+00
 Coeff:     -0.614D-05 0.138D-04 0.451D-04 0.761D-04-0.139D-03-0.453D-03
 Coeff:     -0.640D-03 0.473D-02 0.220D-01-0.538D-01-0.187D+00 0.283D+00
 Coeff:      0.932D+00
 Gap=     0.289 Goal=   None    Shift=    0.000
 Gap=     0.320 Goal=   None    Shift=    0.000
 RMSDP=3.45D-08 MaxDP=1.28D-06 DE=-2.12D-10 OVMax= 5.71D-06

 Cycle  14  Pass 1  IDiag  1:
 RMSU=  1.46D-08    CP:  9.66D-01  1.16D+00  9.33D-01  7.75D-01  1.26D+00
                    CP:  1.47D+00  1.38D+00  1.19D+00  1.43D+00  1.29D+00
                    CP:  1.58D+00  1.60D+00  1.28D+00
 E= -307.003496625752     Delta-E=       -0.000000000051 Rises=F Damp=F
 DIIS: error= 7.02D-08 at cycle  14 NSaved=  14.
 NSaved=14 IEnMin=14 EnMin= -307.003496625752     IErMin=14 ErrMin= 7.02D-08
 ErrMax= 7.02D-08  0.00D+00 EMaxC= 1.00D-01 BMatC= 5.81D-12 BMatP= 4.86D-11
 IDIUse=1 WtCom= 1.00D+00 WtEn= 0.00D+00
 Coeff-Com: -0.268D-05 0.543D-05 0.259D-04 0.600D-04 0.362D-04-0.149D-03
 Coeff-Com: -0.948D-03-0.346D-03 0.749D-02 0.119D-01-0.404D-01-0.132D+00
 Coeff-Com:  0.108D+00 0.105D+01
 Coeff:     -0.268D-05 0.543D-05 0.259D-04 0.600D-04 0.362D-04-0.149D-03
 Coeff:     -0.948D-03-0.346D-03 0.749D-02 0.119D-01-0.404D-01-0.132D+00
 Coeff:      0.108D+00 0.105D+01
 Gap=     0.289 Goal=   None    Shift=    0.000
 Gap=     0.320 Goal=   None    Shift=    0.000
 RMSDP=1.28D-08 MaxDP=5.04D-07 DE=-5.06D-11 OVMax= 1.75D-06

 Cycle  15  Pass 1  IDiag  1:
 RMSU=  5.97D-09    CP:  9.66D-01  1.16D+00  9.33D-01  7.75D-01  1.26D+00
                    CP:  1.47D+00  1.38D+00  1.19D+00  1.43D+00  1.29D+00
                    CP:  1.58D+00  1.68D+00  1.50D+00  1.31D+00
 E= -307.003496625754     Delta-E=       -0.000000000002 Rises=F Damp=F
 DIIS: error= 2.84D-08 at cycle  15 NSaved=  15.
 NSaved=15 IEnMin=15 EnMin= -307.003496625754     IErMin=15 ErrMin= 2.84D-08
 ErrMax= 2.84D-08  0.00D+00 EMaxC= 1.00D-01 BMatC= 8.34D-13 BMatP= 5.81D-12
 IDIUse=1 WtCom= 1.00D+00 WtEn= 0.00D+00
 Coeff-Com:  0.585D-06-0.123D-05-0.203D-05-0.405D-05 0.162D-04 0.342D-04
 Coeff-Com: -0.370D-05-0.522D-03-0.185D-02 0.685D-02 0.182D-01-0.397D-01
 Coeff-Com: -0.103D+00 0.676D-01 0.105D+01
 Coeff:      0.585D-06-0.123D-05-0.203D-05-0.405D-05 0.162D-04 0.342D-04
 Coeff:     -0.370D-05-0.522D-03-0.185D-02 0.685D-02 0.182D-01-0.397D-01
 Coeff:     -0.103D+00 0.676D-01 0.105D+01
 Gap=     0.289 Goal=   None    Shift=    0.000
 Gap=     0.320 Goal=   None    Shift=    0.000
 RMSDP=5.09D-09 MaxDP=2.82D-07 DE=-2.16D-12 OVMax= 6.78D-07

 SCF Done:  E(UM062X) =  -307.003496626     A.U. after   15 cycles
            NFock= 15  Conv=0.51D-08     -V/T= 2.0035
 <Sx>= 0.0000 <Sy>= 0.0000 <Sz>= 0.5000 <S**2>= 0.7555 S= 0.5028
 <L.S>= 0.000000000000E+00
 KE= 3.059327032072D+02 PE=-1.194353811645D+03 EE= 3.433912901126D+02
 Annihilation of the first spin contaminant:
 S**2 before annihilation     0.7555,   after     0.7500
 Leave Link  502 at Mon Mar 11 00:06:09 2019, MaxMem=   671088640 cpu:             964.5 elap:              48.3
 (Enter /shared/centos7/gaussian/g16/l801.exe)
 DoSCS=F DFT=T ScalE2(SS,OS)=  1.000000  1.000000
 Range of M.O.s used for correlation:     1   267
 NBasis=   267 NAE=    24 NBE=    23 NFC=     0 NFV=     0
 NROrb=    267 NOA=    24 NOB=    23 NVA=   243 NVB=   244

 **** Warning!!: The largest alpha MO coefficient is  0.51531499D+02


 **** Warning!!: The largest beta MO coefficient is  0.46346116D+02

 Leave Link  801 at Mon Mar 11 00:06:09 2019, MaxMem=   671088640 cpu:               0.5 elap:               0.0
 (Enter /shared/centos7/gaussian/g16/l1101.exe)
 Using compressed storage, NAtomX=    13.
 Will process     14 centers per pass.
 Leave Link 1101 at Mon Mar 11 00:06:09 2019, MaxMem=   671088640 cpu:               6.3 elap:               0.3
 (Enter /shared/centos7/gaussian/g16/l1102.exe)
 Symmetrizing basis deriv contribution to polar:
 IMax=3 JMax=2 DiffMx= 0.00D+00
 Leave Link 1102 at Mon Mar 11 00:06:09 2019, MaxMem=   671088640 cpu:               0.6 elap:               0.1
 (Enter /shared/centos7/gaussian/g16/l1110.exe)
 Forming Gx(P) for the SCF density, NAtomX=    13.
 Integral derivatives from FoFJK, PRISM(SPDF).
 Do as many integral derivatives as possible in FoFJK.
 G2DrvN: MDV=     671087568.
 G2DrvN: will do    14 centers at a time, making    1 passes.
 Calling FoFCou, ICntrl=  3107 FMM=F I1Cent=   0 AccDes= 0.00D+00.
 FoFJK:  IHMeth= 1 ICntrl=    3107 DoSepK=F KAlg= 0 I1Cent=           0 FoldK=F
 IRaf=         0 NMat=       1 IRICut=       1 DoRegI=T DoRafI=F ISym2E= 0 IDoP0=0 IntGTp=1.
 FoFCou: FMM=F IPFlag=           0 FMFlag=      100000 FMFlg1=           0
         NFxFlg=           0 DoJE=F BraDBF=F KetDBF=F FulRan=T
         wScrn=  0.000000 ICntrl=      3107 IOpCl=  1 I1Cent=           0 NGrid=           0
         NMat0=    1 NMatS0=      1 NMatT0=    0 NMatD0=    1 NMtDS0=    0 NMtDT0=    0
 Symmetry not used in FoFCou.
 End of G2Drv F.D. properties file   721 does not exist.
 End of G2Drv F.D. properties file   722 does not exist.
 End of G2Drv F.D. properties file   788 does not exist.
 Leave Link 1110 at Mon Mar 11 00:07:30 2019, MaxMem=   671088640 cpu:            1622.4 elap:              81.1
 (Enter /shared/centos7/gaussian/g16/l1002.exe)
 Minotr:  UHF open shell wavefunction.
          IDoAtm=1111111111111
          Direct CPHF calculation.
          Differentiating once with respect to nuclear coordinates.
          Requested convergence is 1.0D-08 RMS, and 1.0D-07 maximum.
          Secondary convergence is 1.0D-12 RMS, and 1.0D-12 maximum.
          NewPWx=T KeepS1=F KeepF1=F KeepIn=T MapXYZ=F SortEE=F KeepMc=T.
         3959 words used for storage of precomputed grid.
 Two-electron integrals replicated using symmetry.
          MDV=     671088640 using IRadAn=       1.
          Solving linear equations simultaneously, MaxMat=     380.
 FoF2E skips out because all densities are zero.
 CalDSu exits because no D1Ps are significant.
 FoFJK:  IHMeth= 1 ICntrl=       0 DoSepK=F KAlg= 0 I1Cent=           0 FoldK=F
 IRaf= 960000000 NMat=      39 IRICut=      97 DoRegI=T DoRafI=T ISym2E= 2 IDoP0=3 IntGTp=3.
 FoFCou: FMM=F IPFlag=           0 FMFlag=      100000 FMFlg1=           0
         NFxFlg=           0 DoJE=F BraDBF=F KetDBF=F FulRan=T
         wScrn=  0.000000 ICntrl=         0 IOpCl=  1 I1Cent=           0 NGrid=           0
         NMat0=   39 NMatS0=     39 NMatT0=    0 NMatD0=   39 NMtDS0=    0 NMtDT0=    0
 Integrals replicated using symmetry in FoFCou.
 Raff kept on since  94.23% of shell-pairs survive, threshold=   0.20 IRatSp=94.
          There are    42 degrees of freedom in the 1st order CPHF.  IDoFFX=6 NUNeed=     0.
     36 vectors produced by pass  0 Test12= 2.72D-14 2.38D-09 XBig12= 1.44D-01 1.08D-01.
 AX will form    36 AO Fock derivatives at one time.
     36 vectors produced by pass  1 Test12= 2.72D-14 2.38D-09 XBig12= 1.94D-02 3.30D-02.
     36 vectors produced by pass  2 Test12= 2.72D-14 2.38D-09 XBig12= 8.09D-04 4.48D-03.
     36 vectors produced by pass  3 Test12= 2.72D-14 2.38D-09 XBig12= 1.05D-05 5.44D-04.
     36 vectors produced by pass  4 Test12= 2.72D-14 2.38D-09 XBig12= 1.67D-07 8.20D-05.
     36 vectors produced by pass  5 Test12= 2.72D-14 2.38D-09 XBig12= 2.34D-09 4.55D-06.
     36 vectors produced by pass  6 Test12= 2.72D-14 2.38D-09 XBig12= 1.98D-11 4.22D-07.
     15 vectors produced by pass  7 Test12= 2.72D-14 2.38D-09 XBig12= 1.53D-13 3.59D-08.
      2 vectors produced by pass  8 Test12= 2.72D-14 2.38D-09 XBig12= 1.16D-15 2.75D-09.
 InvSVY:  IOpt=1 It=  1 EMax= 2.22D-15
 Solved reduced A of dimension   269 with    36 vectors.
 End of Minotr F.D. properties file   721 does not exist.
 End of Minotr F.D. properties file   722 does not exist.
 End of Minotr F.D. properties file   788 does not exist.
 Leave Link 1002 at Mon Mar 11 00:09:39 2019, MaxMem=   671088640 cpu:            2574.0 elap:             128.7
 (Enter /shared/centos7/gaussian/g16/l601.exe)
 Copying SCF densities to generalized density rwf, IOpCl= 1 IROHF=0.

 **********************************************************************

            Population analysis using the SCF density.

 **********************************************************************

 Orbital symmetries:
 Alpha Orbitals:
       Occupied  (A) (A) (A) (A) (A) (A) (A) (A) (A) (A) (A) (A)
                 (A) (A) (A) (A) (A) (A) (A) (A) (A) (A) (A) (A)
       Virtual   (A) (A) (A) (A) (A) (A) (A) (A) (A) (A) (A) (A)
                 (A) (A) (A) (A) (A) (A) (A) (A) (A) (A) (A) (A)
                 (A) (A) (A) (A) (A) (A) (A) (A) (A) (A) (A) (A)
                 (A) (A) (A) (A) (A) (A) (A) (A) (A) (A) (A) (A)
                 (A) (A) (A) (A) (A) (A) (A) (A) (A) (A) (A) (A)
                 (A) (A) (A) (A) (A) (A) (A) (A) (A) (A) (A) (A)
                 (A) (A) (A) (A) (A) (A) (A) (A) (A) (A) (A) (A)
                 (A) (A) (A) (A) (A) (A) (A) (A) (A) (A) (A) (A)
                 (A) (A) (A) (A) (A) (A) (A) (A) (A) (A) (A) (A)
                 (A) (A) (A) (A) (A) (A) (A) (A) (A) (A) (A) (A)
                 (A) (A) (A) (A) (A) (A) (A) (A) (A) (A) (A) (A)
                 (A) (A) (A) (A) (A) (A) (A) (A) (A) (A) (A) (A)
                 (A) (A) (A) (A) (A) (A) (A) (A) (A) (A) (A) (A)
                 (A) (A) (A) (A) (A) (A) (A) (A) (A) (A) (A) (A)
                 (A) (A) (A) (A) (A) (A) (A) (A) (A) (A) (A) (A)
                 (A) (A) (A) (A) (A) (A) (A) (A) (A) (A) (A) (A)
                 (A) (A) (A) (A) (A) (A) (A) (A) (A) (A) (A) (A)
                 (A) (A) (A) (A) (A) (A) (A) (A) (A) (A) (A) (A)
                 (A) (A) (A) (A) (A) (A) (A) (A) (A) (A) (A) (A)
                 (A) (A) (A) (A) (A) (A) (A) (A) (A) (A) (A) (A)
                 (A) (A) (A)
 Beta  Orbitals:
       Occupied  (A) (A) (A) (A) (A) (A) (A) (A) (A) (A) (A) (A)
                 (A) (A) (A) (A) (A) (A) (A) (A) (A) (A) (A)
       Virtual   (A) (A) (A) (A) (A) (A) (A) (A) (A) (A) (A) (A)
                 (A) (A) (A) (A) (A) (A) (A) (A) (A) (A) (A) (A)
                 (A) (A) (A) (A) (A) (A) (A) (A) (A) (A) (A) (A)
                 (A) (A) (A) (A) (A) (A) (A) (A) (A) (A) (A) (A)
                 (A) (A) (A) (A) (A) (A) (A) (A) (A) (A) (A) (A)
                 (A) (A) (A) (A) (A) (A) (A) (A) (A) (A) (A) (A)
                 (A) (A) (A) (A) (A) (A) (A) (A) (A) (A) (A) (A)
                 (A) (A) (A) (A) (A) (A) (A) (A) (A) (A) (A) (A)
                 (A) (A) (A) (A) (A) (A) (A) (A) (A) (A) (A) (A)
                 (A) (A) (A) (A) (A) (A) (A) (A) (A) (A) (A) (A)
                 (A) (A) (A) (A) (A) (A) (A) (A) (A) (A) (A) (A)
                 (A) (A) (A) (A) (A) (A) (A) (A) (A) (A) (A) (A)
                 (A) (A) (A) (A) (A) (A) (A) (A) (A) (A) (A) (A)
                 (A) (A) (A) (A) (A) (A) (A) (A) (A) (A) (A) (A)
                 (A) (A) (A) (A) (A) (A) (A) (A) (A) (A) (A) (A)
                 (A) (A) (A) (A) (A) (A) (A) (A) (A) (A) (A) (A)
                 (A) (A) (A) (A) (A) (A) (A) (A) (A) (A) (A) (A)
                 (A) (A) (A) (A) (A) (A) (A) (A) (A) (A) (A) (A)
                 (A) (A) (A) (A) (A) (A) (A) (A) (A) (A) (A) (A)
                 (A) (A) (A) (A) (A) (A) (A) (A) (A) (A) (A) (A)
                 (A) (A) (A) (A)
 The electronic state is 2-A.
 Alpha  occ. eigenvalues --  -19.67284 -19.61598 -10.67383 -10.59162 -10.55766
 Alpha  occ. eigenvalues --  -10.55723  -1.24266  -1.14753  -0.90329  -0.82163
 Alpha  occ. eigenvalues --   -0.73007  -0.65531  -0.58952  -0.57592  -0.57260
 Alpha  occ. eigenvalues --   -0.53612  -0.49866  -0.49074  -0.44872  -0.43941
 Alpha  occ. eigenvalues --   -0.43690  -0.38259  -0.36973  -0.27443
 Alpha virt. eigenvalues --    0.01475   0.02792   0.03248   0.04172   0.04899
 Alpha virt. eigenvalues --    0.05781   0.06260   0.06578   0.08026   0.09151
 Alpha virt. eigenvalues --    0.09339   0.10766   0.11492   0.13008   0.13681
 Alpha virt. eigenvalues --    0.15652   0.16006   0.18994   0.19554   0.20574
 Alpha virt. eigenvalues --    0.21306   0.22539   0.23547   0.24684   0.25771
 Alpha virt. eigenvalues --    0.27435   0.28367   0.29132   0.29805   0.30030
 Alpha virt. eigenvalues --    0.32803   0.33241   0.34292   0.36372   0.38180
 Alpha virt. eigenvalues --    0.40453   0.43597   0.43849   0.45167   0.49310
 Alpha virt. eigenvalues --    0.49839   0.51273   0.53689   0.54146   0.54776
 Alpha virt. eigenvalues --    0.55773   0.56439   0.58061   0.59091   0.60653
 Alpha virt. eigenvalues --    0.62600   0.63018   0.64728   0.66159   0.67475
 Alpha virt. eigenvalues --    0.68768   0.70537   0.72977   0.74235   0.77558
 Alpha virt. eigenvalues --    0.80560   0.81883   0.82962   0.86486   0.88280
 Alpha virt. eigenvalues --    0.89482   0.93055   0.96569   0.98125   0.98403
 Alpha virt. eigenvalues --    1.02564   1.05795   1.07515   1.07790   1.09666
 Alpha virt. eigenvalues --    1.10661   1.13114   1.15578   1.17209   1.17749
 Alpha virt. eigenvalues --    1.18763   1.21102   1.21798   1.22940   1.23309
 Alpha virt. eigenvalues --    1.25350   1.28888   1.30097   1.33844   1.35654
 Alpha virt. eigenvalues --    1.35815   1.37752   1.39297   1.40886   1.42938
 Alpha virt. eigenvalues --    1.44216   1.44915   1.46579   1.48284   1.49844
 Alpha virt. eigenvalues --    1.54082   1.55943   1.59154   1.59862   1.64275
 Alpha virt. eigenvalues --    1.69672   1.71269   1.71908   1.73669   1.81270
 Alpha virt. eigenvalues --    1.83972   1.93353   2.05432   2.10004   2.16396
 Alpha virt. eigenvalues --    2.29315   2.32491   2.40222   2.44957   2.48202
 Alpha virt. eigenvalues --    2.50838   2.54421   2.59908   2.63469   2.66448
 Alpha virt. eigenvalues --    2.72190   2.72785   2.77314   2.81788   2.83749
 Alpha virt. eigenvalues --    2.87222   2.92244   2.95788   2.96150   2.97137
 Alpha virt. eigenvalues --    2.99057   3.01270   3.02445   3.04487   3.06939
 Alpha virt. eigenvalues --    3.07246   3.11911   3.12263   3.12908   3.15056
 Alpha virt. eigenvalues --    3.18583   3.20288   3.22900   3.24155   3.27530
 Alpha virt. eigenvalues --    3.28841   3.32746   3.33940   3.34379   3.38772
 Alpha virt. eigenvalues --    3.41887   3.42962   3.45628   3.48131   3.50287
 Alpha virt. eigenvalues --    3.53865   3.54184   3.57802   3.61749   3.64331
 Alpha virt. eigenvalues --    3.66503   3.69491   3.72778   3.75545   3.78263
 Alpha virt. eigenvalues --    3.84419   3.86461   3.87582   3.88188   3.93169
 Alpha virt. eigenvalues --    3.98034   4.00126   4.02456   4.06487   4.08389
 Alpha virt. eigenvalues --    4.11038   4.13549   4.16573   4.18720   4.18944
 Alpha virt. eigenvalues --    4.19490   4.26041   4.30090   4.31362   4.34770
 Alpha virt. eigenvalues --    4.35530   4.37114   4.40641   4.43439   4.47324
 Alpha virt. eigenvalues --    4.51233   4.58274   4.64175   4.90877   4.92988
 Alpha virt. eigenvalues --    4.97709   5.08232   5.10844   5.16314   5.21432
 Alpha virt. eigenvalues --    5.21985   5.24428   5.26600   5.37141   5.45177
 Alpha virt. eigenvalues --    5.48981   5.49550   5.50148   5.52939   5.56496
 Alpha virt. eigenvalues --    5.58684   5.61200   5.68476   5.74445   5.78635
 Alpha virt. eigenvalues --    6.00444   6.08232   6.39857   6.46116   6.67668
 Alpha virt. eigenvalues --    6.83262   6.95153   7.05047   7.11475   7.15523
 Alpha virt. eigenvalues --    7.19584   7.25024   7.31776   7.52876   7.66652
 Alpha virt. eigenvalues --    7.76780   7.82762  24.21451  24.43535  24.47571
 Alpha virt. eigenvalues --   24.84550  50.17794  50.31226
  Beta  occ. eigenvalues --  -19.67268 -19.61567 -10.67272 -10.59162 -10.55810
  Beta  occ. eigenvalues --  -10.55052  -1.24172  -1.14661  -0.89088  -0.81484
  Beta  occ. eigenvalues --   -0.70180  -0.65288  -0.58401  -0.57364  -0.56964
  Beta  occ. eigenvalues --   -0.52834  -0.49296  -0.48593  -0.44353  -0.43553
  Beta  occ. eigenvalues --   -0.43386  -0.38132  -0.35978
  Beta virt. eigenvalues --   -0.03996   0.01006   0.02448   0.03196   0.04099
  Beta virt. eigenvalues --    0.04738   0.05925   0.06185   0.07349   0.08012
  Beta virt. eigenvalues --    0.08933   0.09298   0.10561   0.12277   0.12488
  Beta virt. eigenvalues --    0.13040   0.15681   0.16032   0.19191   0.19639
  Beta virt. eigenvalues --    0.20649   0.21271   0.22719   0.23893   0.24711
  Beta virt. eigenvalues --    0.25665   0.27585   0.28240   0.29104   0.29719
  Beta virt. eigenvalues --    0.30294   0.32865   0.33273   0.34342   0.36483
  Beta virt. eigenvalues --    0.38098   0.40616   0.43645   0.44006   0.45169
  Beta virt. eigenvalues --    0.49252   0.49855   0.51760   0.53626   0.54628
  Beta virt. eigenvalues --    0.55106   0.55993   0.56781   0.59159   0.59568
  Beta virt. eigenvalues --    0.61234   0.62632   0.63324   0.64686   0.66259
  Beta virt. eigenvalues --    0.68142   0.69101   0.70749   0.72779   0.73950
  Beta virt. eigenvalues --    0.77614   0.80600   0.81688   0.82908   0.86610
  Beta virt. eigenvalues --    0.88154   0.89469   0.92733   0.96521   0.97231
  Beta virt. eigenvalues --    0.97339   1.02733   1.05822   1.07342   1.07836
  Beta virt. eigenvalues --    1.09286   1.10657   1.13131   1.15626   1.17292
  Beta virt. eigenvalues --    1.17722   1.18950   1.21141   1.21934   1.23019
  Beta virt. eigenvalues --    1.23426   1.25212   1.28847   1.30319   1.33948
  Beta virt. eigenvalues --    1.35757   1.35967   1.37964   1.39495   1.40987
  Beta virt. eigenvalues --    1.42960   1.44520   1.45149   1.47348   1.48581
  Beta virt. eigenvalues --    1.50477   1.54083   1.55920   1.59246   1.61225
  Beta virt. eigenvalues --    1.64338   1.69689   1.71407   1.71943   1.73728
  Beta virt. eigenvalues --    1.81234   1.84029   1.93392   2.05559   2.10141
  Beta virt. eigenvalues --    2.16605   2.29414   2.32662   2.40231   2.45661
  Beta virt. eigenvalues --    2.48431   2.50997   2.54996   2.60796   2.63933
  Beta virt. eigenvalues --    2.68806   2.72732   2.74287   2.78220   2.83698
  Beta virt. eigenvalues --    2.85940   2.90465   2.94402   2.96058   2.97798
  Beta virt. eigenvalues --    2.97990   3.01701   3.03370   3.04271   3.06258
  Beta virt. eigenvalues --    3.08247   3.10283   3.12402   3.13479   3.15196
  Beta virt. eigenvalues --    3.16042   3.21833   3.22003   3.25601   3.27859
  Beta virt. eigenvalues --    3.28489   3.30473   3.34153   3.35789   3.36577
  Beta virt. eigenvalues --    3.41307   3.42462   3.43653   3.48697   3.48837
  Beta virt. eigenvalues --    3.51556   3.54481   3.55499   3.60165   3.63051
  Beta virt. eigenvalues --    3.64749   3.67081   3.70608   3.73882   3.75670
  Beta virt. eigenvalues --    3.79729   3.85578   3.86715   3.87636   3.88218
  Beta virt. eigenvalues --    3.93367   3.99441   4.01893   4.03005   4.07604
  Beta virt. eigenvalues --    4.09623   4.13210   4.13920   4.18621   4.20675
  Beta virt. eigenvalues --    4.21221   4.22556   4.26836   4.30269   4.31492
  Beta virt. eigenvalues --    4.35185   4.35969   4.38578   4.42830   4.43971
  Beta virt. eigenvalues --    4.47889   4.52240   4.59915   4.65649   4.91971
  Beta virt. eigenvalues --    4.95654   5.00764   5.08292   5.11466   5.16389
  Beta virt. eigenvalues --    5.22030   5.22906   5.25568   5.27004   5.37231
  Beta virt. eigenvalues --    5.45457   5.49638   5.51920   5.54114   5.55657
  Beta virt. eigenvalues --    5.56607   5.60266   5.61540   5.68475   5.74467
  Beta virt. eigenvalues --    5.78547   6.00477   6.08261   6.39923   6.46119
  Beta virt. eigenvalues --    6.67685   6.83383   6.95255   7.05035   7.11535
  Beta virt. eigenvalues --    7.15590   7.19635   7.25069   7.31856   7.52930
  Beta virt. eigenvalues --    7.66681   7.76803   7.82784  24.22500  24.43546
  Beta virt. eigenvalues --   24.48082  24.84602  50.17777  50.31199
          Condensed to atoms (all electrons):
               1          2          3          4          5          6
     1  O    8.213883  -0.096891  -0.119736   0.140556   0.157422  -0.026410
     2  O   -0.096891   8.159338   0.013456  -0.043083   0.377946  -0.026705
     3  C   -0.119736   0.013456   5.641969  -0.085921  -0.092233   0.132510
     4  C    0.140556  -0.043083  -0.085921   4.972394  -0.079785   0.003866
     5  C    0.157422   0.377946  -0.092233  -0.079785   5.625624  -0.119143
     6  C   -0.026410  -0.026705   0.132510   0.003866  -0.119143   5.600235
     7  H   -0.001741   0.004158   0.454599   0.003502  -0.072757  -0.045770
     8  H    0.007502  -0.005542   0.476369  -0.000925  -0.082686  -0.021653
     9  H   -0.035819  -0.003866  -0.002876   0.431231   0.004263  -0.001168
    10  H   -0.034529  -0.004290  -0.001800   0.427662   0.001266   0.001872
    11  H   -0.056866   0.003715   0.005329   0.423843   0.008902   0.000000
    12  H    0.000159   0.000143  -0.025169   0.000427  -0.008450   0.414266
    13  H   -0.001826   0.000265  -0.013557  -0.001260  -0.008778   0.406035
               7          8          9         10         11         12
     1  O   -0.001741   0.007502  -0.035819  -0.034529  -0.056866   0.000159
     2  O    0.004158  -0.005542  -0.003866  -0.004290   0.003715   0.000143
     3  C    0.454599   0.476369  -0.002876  -0.001800   0.005329  -0.025169
     4  C    0.003502  -0.000925   0.431231   0.427662   0.423843   0.000427
     5  C   -0.072757  -0.082686   0.004263   0.001266   0.008902  -0.008450
     6  C   -0.045770  -0.021653  -0.001168   0.001872   0.000000   0.414266
     7  H    0.505968  -0.023665   0.000020  -0.000057  -0.000011   0.003208
     8  H   -0.023665   0.480258   0.000012   0.000020   0.000007  -0.005774
     9  H    0.000020   0.000012   0.530057  -0.036813  -0.025248   0.000004
    10  H   -0.000057   0.000020  -0.036813   0.530285  -0.025273  -0.000007
    11  H   -0.000011   0.000007  -0.025248  -0.025273   0.532156  -0.000002
    12  H    0.003208  -0.005774   0.000004  -0.000007  -0.000002   0.463299
    13  H   -0.005533   0.002797  -0.000010   0.000059  -0.000001  -0.024325
              13
     1  O   -0.001826
     2  O    0.000265
     3  C   -0.013557
     4  C   -0.001260
     5  C   -0.008778
     6  C    0.406035
     7  H   -0.005533
     8  H    0.002797
     9  H   -0.000010
    10  H    0.000059
    11  H   -0.000001
    12  H   -0.024325
    13  H    0.465663
          Atomic-Atomic Spin Densities.
               1          2          3          4          5          6
     1  O    0.006143  -0.000844   0.010120   0.001207  -0.013582   0.000772
     2  O   -0.000844   0.023878   0.007234  -0.000667  -0.022264   0.005689
     3  C    0.010120   0.007234   0.002384  -0.000007  -0.066642  -0.043922
     4  C    0.001207  -0.000667  -0.000007   0.000330   0.001068   0.001853
     5  C   -0.013582  -0.022264  -0.066642   0.001068   0.209064  -0.051423
     6  C    0.000772   0.005689  -0.043922   0.001853  -0.051423   1.173585
     7  H    0.003028   0.001205   0.025465   0.000759  -0.023873  -0.018415
     8  H    0.000709   0.001581   0.012943   0.000067  -0.013344  -0.008843
     9  H   -0.001682   0.000691   0.000162   0.000251   0.000676  -0.000387
    10  H    0.000647  -0.000207  -0.000103  -0.000176  -0.000465   0.000560
    11  H    0.000250  -0.000112  -0.000248  -0.000050   0.000190  -0.000032
    12  H    0.000394  -0.000032   0.006169   0.000236  -0.003151  -0.003928
    13  H    0.000685   0.000230   0.004948   0.000123  -0.002451  -0.004290
               7          8          9         10         11         12
     1  O    0.003028   0.000709  -0.001682   0.000647   0.000250   0.000394
     2  O    0.001205   0.001581   0.000691  -0.000207  -0.000112  -0.000032
     3  C    0.025465   0.012943   0.000162  -0.000103  -0.000248   0.006169
     4  C    0.000759   0.000067   0.000251  -0.000176  -0.000050   0.000236
     5  C   -0.023873  -0.013344   0.000676  -0.000465   0.000190  -0.003151
     6  C   -0.018415  -0.008843  -0.000387   0.000560  -0.000032  -0.003928
     7  H    0.024928   0.003176  -0.000024   0.000006  -0.000001  -0.000036
     8  H    0.003176   0.012641  -0.000008   0.000002  -0.000001   0.000791
     9  H   -0.000024  -0.000008   0.000891  -0.000080  -0.000158   0.000000
    10  H    0.000006   0.000002  -0.000080   0.000075  -0.000023  -0.000004
    11  H   -0.000001  -0.000001  -0.000158  -0.000023   0.000179  -0.000000
    12  H   -0.000036   0.000791   0.000000  -0.000004  -0.000000  -0.044497
    13  H    0.001033  -0.000176   0.000002   0.000001  -0.000002   0.004773
              13
     1  O    0.000685
     2  O    0.000230
     3  C    0.004948
     4  C    0.000123
     5  C   -0.002451
     6  C   -0.004290
     7  H    0.001033
     8  H   -0.000176
     9  H    0.000002
    10  H    0.000001
    11  H   -0.000002
    12  H    0.004773
    13  H   -0.045695
 Mulliken charges and spin densities:
               1          2
     1  O   -0.145703   0.007847
     2  O   -0.378645   0.016383
     3  C   -0.382941  -0.041496
     4  C   -0.192508   0.004995
     5  C    0.288410   0.013804
     6  C   -0.317934   1.051221
     7  H    0.178079   0.017251
     8  H    0.173280   0.009539
     9  H    0.140214   0.000335
    10  H    0.141606   0.000235
    11  H    0.133449  -0.000009
    12  H    0.182221  -0.039284
    13  H    0.180471  -0.040820
 Sum of Mulliken charges =  -0.00000   1.00000
 Mulliken charges and spin densities with hydrogens summed into heavy atoms:
               1          2
     1  O   -0.145703   0.007847
     2  O   -0.378645   0.016383
     3  C   -0.031582  -0.014706
     4  C    0.222761   0.005556
     5  C    0.288410   0.013804
     6  C    0.044758   0.971117
 APT charges:
               1
     1  O   -0.027841
     2  O   -0.364134
     3  C   -0.995114
     4  C   -1.220717
     5  C    0.452270
     6  C   -0.859352
     7  H    0.381153
     8  H    0.471833
     9  H    0.408031
    10  H    0.345831
    11  H    0.523053
    12  H    0.501816
    13  H    0.383172
 Sum of APT charges =  -0.00000
 APT charges with hydrogens summed into heavy atoms:
               1
     1  O   -0.027841
     2  O   -0.364134
     3  C   -0.142129
     4  C    0.056199
     5  C    0.452270
     6  C    0.025636
 Electronic spatial extent (au):  <R**2>=            619.3757
 Charge=             -0.0000 electrons
 Dipole moment (field-independent basis, Debye):
    X=              0.1258    Y=             -1.7346    Z=              0.4644  Tot=              1.8001
 Quadrupole moment (field-independent basis, Debye-Ang):
   XX=            -31.8837   YY=            -40.6269   ZZ=            -35.6664
   XY=             -2.5254   XZ=             -0.0192   YZ=              1.7365
 Traceless Quadrupole moment (field-independent basis, Debye-Ang):
   XX=              4.1753   YY=             -4.5679   ZZ=              0.3926
   XY=             -2.5254   XZ=             -0.0192   YZ=              1.7365
 Octapole moment (field-independent basis, Debye-Ang**2):
  XXX=             21.7855  YYY=             -7.1656  ZZZ=              0.7465  XYY=              0.2150
  XXY=              0.3918  XXZ=             -2.0419  XZZ=              0.8796  YZZ=              1.0647
  YYZ=              2.0652  XYZ=              0.7952
 Hexadecapole moment (field-independent basis, Debye-Ang**3):
 XXXX=           -558.1472 YYYY=           -189.9954 ZZZZ=            -84.3502 XXXY=            -20.6260
 XXXZ=              7.0160 YYYX=             -7.3732 YYYZ=              1.8074 ZZZX=             -1.6560
 ZZZY=             -3.3647 XXYY=           -117.8027 XXZZ=           -101.4324 YYZZ=            -46.8028
 XXYZ=              0.9209 YYXZ=              0.9092 ZZXY=             -0.1876
 N-N= 2.380263216999D+02 E-N=-1.194353813114D+03  KE= 3.059327032072D+02
  Exact polarizability:   0.000   0.000   0.000   0.000   0.000   0.000
 Approx polarizability:  62.930   1.661  66.676  -0.260  -2.900  55.494
                          Isotropic Fermi Contact Couplings
        Atom                 a.u.       MegaHertz       Gauss      10(-4) cm-1
     1  O(17)              0.00079      -0.47649      -0.17002      -0.15894
     2  O(17)              0.00295      -1.78628      -0.63739      -0.59584
     3  C(13)             -0.03399     -38.20920     -13.63399     -12.74522
     4  C(13)              0.00024       0.27532       0.09824       0.09184
     5  C(13)              0.08335      93.69879      33.43406      31.25455
     6  C(13)              0.17741     199.44263      71.16609      66.52690
     7  H(1)               0.01040      46.50434      16.59390      15.51218
     8  H(1)               0.00489      21.83691       7.79195       7.28401
     9  H(1)               0.00005       0.23643       0.08436       0.07886
    10  H(1)               0.00008       0.36372       0.12978       0.12132
    11  H(1)               0.00003       0.11557       0.04124       0.03855
    12  H(1)              -0.01563     -69.88285     -24.93594     -23.31041
    13  H(1)              -0.01569     -70.11242     -25.01785     -23.38699
 --------------------------------------------------------
       Center         ----  Spin Dipole Couplings  ----
                      3XX-RR        3YY-RR        3ZZ-RR
 --------------------------------------------------------
     1   Atom       -0.011528      0.010565      0.000963
     2   Atom       -0.007371     -0.022090      0.029461
     3   Atom        0.005480     -0.007154      0.001674
     4   Atom        0.005130     -0.002684     -0.002446
     5   Atom        0.056171     -0.036120     -0.020051
     6   Atom        0.612998     -0.535249     -0.077748
     7   Atom       -0.004642     -0.008435      0.013077
     8   Atom       -0.008439      0.010044     -0.001605
     9   Atom        0.002760     -0.001355     -0.001406
    10   Atom        0.003527     -0.001902     -0.001625
    11   Atom        0.002617     -0.001170     -0.001448
    12   Atom        0.008412     -0.044550      0.036138
    13   Atom       -0.020193      0.073422     -0.053229
 --------------------------------------------------------
                        XY            XZ            YZ
 --------------------------------------------------------
     1   Atom       -0.000073     -0.000407      0.034598
     2   Atom       -0.013477     -0.080282      0.022744
     3   Atom        0.007948     -0.002652      0.005716
     4   Atom       -0.000198     -0.000539      0.000083
     5   Atom        0.022138     -0.037972     -0.006520
     6   Atom        0.097761     -0.736837     -0.066174
     7   Atom        0.001431      0.009893      0.004826
     8   Atom        0.004593      0.001659      0.011274
     9   Atom        0.000681      0.000821      0.000094
    10   Atom        0.000250     -0.001120     -0.000005
    11   Atom       -0.001007      0.000400     -0.000112
    12   Atom       -0.025334      0.022728     -0.052554
    13   Atom       -0.017748     -0.030461     -0.002061
 --------------------------------------------------------


 ---------------------------------------------------------------------------------
              Anisotropic Spin Dipole Couplings in Principal Axis System
 ---------------------------------------------------------------------------------

       Atom             a.u.   MegaHertz   Gauss  10(-4) cm-1        Axes

              Baa    -0.0292     2.111     0.753     0.704  0.0147 -0.6566  0.7541
     1 O(17)  Bbb    -0.0115     0.834     0.298     0.278  0.9999  0.0143 -0.0070
              Bcc     0.0407    -2.945    -1.051    -0.982 -0.0062  0.7541  0.6567
 
              Baa    -0.0716     5.182     1.849     1.728  0.7717 -0.0797  0.6309
     2 O(17)  Bbb    -0.0275     1.987     0.709     0.663  0.1945  0.9741 -0.1148
              Bcc     0.0991    -7.169    -2.558    -2.391 -0.6055  0.2114  0.7673
 
              Baa    -0.0136    -1.824    -0.651    -0.608 -0.4003  0.8332 -0.3816
     3 C(13)  Bbb     0.0043     0.573     0.205     0.191 -0.1817  0.3360  0.9242
              Bcc     0.0093     1.250     0.446     0.417  0.8982  0.4393  0.0169
 
              Baa    -0.0027    -0.364    -0.130    -0.121  0.0041  0.9561 -0.2929
     4 C(13)  Bbb    -0.0025    -0.331    -0.118    -0.110  0.0753  0.2918  0.9535
              Bcc     0.0052     0.694     0.248     0.232  0.9972 -0.0259 -0.0708
 
              Baa    -0.0417    -5.601    -1.999    -1.868 -0.3109  0.9112 -0.2704
     5 C(13)  Bbb    -0.0348    -4.670    -1.666    -1.558  0.2833  0.3604  0.8887
              Bcc     0.0765    10.270     3.665     3.426  0.9073  0.1997 -0.3702
 
              Baa    -0.5486   -73.612   -26.267   -24.554  0.4010  0.5799  0.7091
     6 C(13)  Bbb    -0.5414   -72.650   -25.923   -24.233 -0.3617  0.8114 -0.4590
              Bcc     1.0900   146.262    52.190    48.788  0.8416  0.0724 -0.5352
 
              Baa    -0.0099    -5.272    -1.881    -1.759  0.5118  0.7694 -0.3823
     7 H(1)   Bbb    -0.0085    -4.559    -1.627    -1.521  0.7618 -0.6121 -0.2119
              Bcc     0.0184     9.831     3.508     3.279  0.3971  0.1828  0.8994
 
              Baa    -0.0099    -5.301    -1.892    -1.768  0.8246 -0.4097  0.3901
     8 H(1)   Bbb    -0.0078    -4.187    -1.494    -1.397 -0.5364 -0.3471  0.7693
              Bcc     0.0178     9.488     3.386     3.165  0.1798  0.8436  0.5059
 
              Baa    -0.0016    -0.839    -0.299    -0.280 -0.2224  0.2938  0.9296
     9 H(1)   Bbb    -0.0015    -0.775    -0.276    -0.258 -0.0902  0.9432 -0.3196
              Bcc     0.0030     1.614     0.576     0.538  0.9708  0.1550  0.1833
 
              Baa    -0.0019    -1.034    -0.369    -0.345 -0.1373  0.8683 -0.4766
    10 H(1)   Bbb    -0.0018    -0.978    -0.349    -0.326  0.1558  0.4941  0.8553
              Bcc     0.0038     2.012     0.718     0.671  0.9782  0.0432 -0.2031
 
              Baa    -0.0015    -0.795    -0.284    -0.265 -0.0498  0.1867  0.9812
    11 H(1)   Bbb    -0.0014    -0.757    -0.270    -0.253  0.2543  0.9524 -0.1683
              Bcc     0.0029     1.552     0.554     0.518  0.9658 -0.2412  0.0949
 
              Baa    -0.0726   -38.757   -13.830   -12.928  0.1694  0.9008  0.3998
    12 H(1)   Bbb    -0.0042    -2.252    -0.803    -0.751  0.8895  0.0349 -0.4555
              Bcc     0.0769    41.009    14.633    13.679  0.4243 -0.4328  0.7954
 
              Baa    -0.0722   -38.516   -13.743   -12.847  0.5232  0.0758  0.8489
    13 H(1)   Bbb    -0.0046    -2.447    -0.873    -0.816  0.8311  0.1751 -0.5279
              Bcc     0.0768    40.962    14.616    13.664 -0.1887  0.9816  0.0286
 

 ---------------------------------------------------------------------------------

 No NMR shielding tensors so no spin-rotation constants.
 Leave Link  601 at Mon Mar 11 00:09:40 2019, MaxMem=   671088640 cpu:               8.3 elap:               0.5
 (Enter /shared/centos7/gaussian/g16/l701.exe)
 ... and contract with generalized density number  0.
 Compute integral second derivatives.
 Leave Link  701 at Mon Mar 11 00:09:40 2019, MaxMem=   671088640 cpu:               7.1 elap:               0.4
 (Enter /shared/centos7/gaussian/g16/l702.exe)
 L702 exits ... SP integral derivatives will be done elsewhere.
 Leave Link  702 at Mon Mar 11 00:09:40 2019, MaxMem=   671088640 cpu:               0.3 elap:               0.0
 (Enter /shared/centos7/gaussian/g16/l703.exe)
 Integral derivatives from FoFJK, PRISM(SPDF).
 Compute integral second derivatives, UseDBF=F ICtDFT=           0.
 Calling FoFJK, ICntrl=    100147 FMM=F ISym2X=0 I1Cent= 0 IOpClX= 1 NMat=1 NMatS=1 NMatT=0.
 FoFJK:  IHMeth= 1 ICntrl=  100147 DoSepK=F KAlg= 0 I1Cent=           0 FoldK=F
 IRaf=         0 NMat=       1 IRICut=       1 DoRegI=T DoRafI=F ISym2E= 0 IDoP0=0 IntGTp=1.
 FoFCou: FMM=F IPFlag=           0 FMFlag=      100000 FMFlg1=         800
         NFxFlg=           0 DoJE=F BraDBF=F KetDBF=F FulRan=T
         wScrn=  0.000000 ICntrl=    100147 IOpCl=  1 I1Cent=           0 NGrid=           0
         NMat0=    1 NMatS0=      1 NMatT0=    0 NMatD0=    1 NMtDS0=    0 NMtDT0=    0
 Symmetry not used in FoFCou.
 Leave Link  703 at Mon Mar 11 00:11:08 2019, MaxMem=   671088640 cpu:            1763.0 elap:              88.2
 (Enter /shared/centos7/gaussian/g16/l716.exe)
 Dipole        = 4.95009218D-02-6.82437415D-01 1.82705141D-01
 Polarizability= 0.00000000D+00 0.00000000D+00 0.00000000D+00
                 0.00000000D+00 0.00000000D+00 0.00000000D+00
 ***** Axes restored to original set *****
 -------------------------------------------------------------------
 Center     Atomic                   Forces (Hartrees/Bohr)
 Number     Number              X              Y              Z
 -------------------------------------------------------------------
      1        8           0.000000282    0.000000028    0.000000034
      2        8          -0.000001424   -0.000000052   -0.000000308
      3        6          -0.000000140    0.000000384    0.000000649
      4        6          -0.000000011   -0.000000257   -0.000000482
      5        6          -0.000000525    0.000000120    0.000000131
      6        6           0.000000698   -0.000000035    0.000000069
      7        1           0.000000294    0.000000722    0.000001309
      8        1          -0.000000846    0.000000529    0.000000791
      9        1          -0.000000716   -0.000000040   -0.000000173
     10        1          -0.000000207   -0.000000681   -0.000001222
     11        1           0.000000718   -0.000000311   -0.000000404
     12        1           0.000000400   -0.000000333   -0.000000419
     13        1           0.000001477   -0.000000073    0.000000024
 -------------------------------------------------------------------
 Cartesian Forces:  Max     0.000001477 RMS     0.000000595
 Force constants in Cartesian coordinates: 
                1             2             3             4             5 
      1  0.158081D+00
      2 -0.142994D+00  0.373970D+00
      3 -0.274108D-02 -0.999344D-01  0.468744D+00
      4  0.239324D-01  0.370143D-02  0.324781D-01  0.173322D+00
      5  0.427687D-02  0.297309D-01 -0.248115D-01 -0.206322D+00  0.341558D+00
      6  0.303628D-01 -0.199642D-01 -0.110180D+00 -0.234077D+00  0.314457D+00
      7  0.610478D-02  0.754956D-02 -0.143760D-02  0.945999D-02  0.272335D-01
      8  0.108721D-01 -0.164720D-01  0.149696D-01  0.246596D-01 -0.240990D-01
      9 -0.171010D-01  0.397806D-01 -0.161084D-01  0.167475D-01 -0.310813D-01
     10 -0.101577D+00  0.657282D-01 -0.119465D-01 -0.676988D-02 -0.814727D-03
     11  0.616698D-01 -0.188110D+00  0.269850D-01  0.169824D-02 -0.589602D-02
     12  0.175764D-02  0.252309D-02 -0.889903D-01 -0.336081D-02  0.390133D-02
     13 -0.819327D-01  0.226076D-01  0.254453D-02 -0.200502D+00  0.173524D+00
     14  0.265327D-01 -0.129350D+00  0.462265D-01  0.176911D+00 -0.342769D+00
     15 -0.349155D-02  0.556587D-01 -0.251439D+00  0.185704D+00 -0.261425D+00
     16  0.182893D-03  0.185381D-02 -0.235297D-02 -0.328149D-02  0.378781D-02
     17 -0.372530D-03  0.125115D-02 -0.989881D-03  0.283560D-02  0.290880D-02
     18 -0.142240D-02  0.278301D-02 -0.218137D-02 -0.285669D-04  0.980424D-03
     19  0.165758D-02 -0.790101D-03 -0.537139D-03 -0.205199D-03  0.290392D-02
     20 -0.205613D-02  0.143985D-03  0.474853D-03 -0.476369D-04 -0.792034D-02
     21 -0.259958D-03  0.140721D-02 -0.577809D-03  0.548113D-03  0.231504D-03
     22 -0.417181D-03  0.265593D-02 -0.466163D-03  0.450326D-03 -0.117107D-02
     23  0.366281D-02 -0.697662D-02  0.190869D-02 -0.207791D-02  0.199079D-02
     24 -0.121789D-02  0.168546D-02  0.327945D-03  0.808580D-03 -0.126197D-02
     25  0.924263D-02  0.204096D-01  0.792828D-02 -0.262711D-03  0.856236D-03
     26 -0.455641D-02 -0.382004D-01 -0.476009D-02 -0.145386D-02  0.233688D-02
     27  0.608240D-02  0.101604D-01  0.472622D-02  0.742713D-03 -0.575760D-03
     28 -0.145056D-01  0.123198D-01 -0.276790D-02  0.149845D-02 -0.204625D-02
     29  0.400003D-01 -0.111063D-01 -0.240982D-02 -0.571413D-03  0.617584D-03
     30 -0.111968D-01  0.136342D-02  0.118385D-02  0.623651D-03 -0.115215D-02
     31 -0.893036D-03  0.728121D-02 -0.213943D-01  0.133169D-02 -0.117331D-02
     32  0.220209D-02 -0.144188D-01  0.409007D-01 -0.101883D-02  0.255373D-02
     33 -0.141979D-02  0.448657D-02 -0.664236D-02 -0.432588D-03  0.949158D-03
     34  0.166114D-03 -0.264153D-03  0.133239D-03  0.331587D-03 -0.476295D-03
     35  0.576490D-03 -0.355717D-03  0.530371D-03  0.106624D-02 -0.572456D-03
     36  0.272727D-03  0.737375D-05  0.493373D-03  0.259946D-03 -0.494539D-04
     37 -0.416299D-04 -0.584914D-04  0.559380D-03  0.695379D-03 -0.578701D-03
     38  0.186231D-03 -0.105766D-03  0.910060D-03  0.620110D-03 -0.439844D-03
     39  0.374893D-03  0.428532D-04  0.642884D-03 -0.132167D-04 -0.161557D-03
                6             7             8             9            10 
      6  0.522531D+00
      7  0.522680D-02  0.515976D+00
      8 -0.102852D-01  0.144855D-01  0.403842D+00
      9  0.153646D-02 -0.271364D-01 -0.488341D-02  0.627504D+00
     10  0.742380D-02  0.401416D-02  0.341044D-03  0.185173D-02  0.569339D+00
     11 -0.158799D-01  0.901720D-03  0.467870D-02 -0.349498D-04  0.493534D-01
     12  0.299799D-02  0.100976D-02 -0.303192D-03 -0.445713D-02 -0.170663D-01
     13  0.192106D+00 -0.102408D+00  0.286364D-01 -0.103426D-01  0.152494D-02
     14 -0.272464D+00  0.483694D-01 -0.141620D+00  0.243070D-01  0.522088D-02
     15 -0.420406D+00 -0.116208D-01  0.180257D-01 -0.770542D-01 -0.180139D-01
     16  0.125977D-02 -0.120320D+00 -0.848024D-01 -0.264269D-01  0.933956D-04
     17  0.692948D-03 -0.947978D-01 -0.134422D+00 -0.426820D-01  0.100082D-02
     18  0.137527D-02 -0.265804D-01 -0.377668D-01 -0.101819D+00  0.332706D-03
     19 -0.935106D-03 -0.244695D+00  0.831641D-02  0.113548D+00  0.296989D-03
     20  0.362625D-03  0.683260D-02 -0.391788D-01 -0.116715D-04 -0.392863D-03
     21  0.149887D-02  0.114381D+00 -0.195870D-02 -0.120158D+00 -0.190715D-03
     22  0.902483D-03 -0.606904D-01  0.462093D-02 -0.420889D-01  0.600642D-03
     23 -0.147745D-02  0.422106D-02 -0.450895D-01  0.207748D-01 -0.401135D-03
     24  0.220778D-02 -0.455337D-01  0.274475D-01 -0.313951D+00  0.153085D-03
     25 -0.854607D-03 -0.518921D-03 -0.126306D-03 -0.300526D-04 -0.115257D+00
     26  0.245175D-02  0.332841D-03  0.105486D-03  0.462886D-03 -0.931600D-01
     27 -0.916261D-03 -0.633340D-03 -0.366942D-03 -0.139313D-03 -0.647245D-01
     28 -0.141566D-02 -0.761759D-04  0.461489D-04 -0.252335D-03 -0.297935D+00
     29  0.212881D-02 -0.592182D-03 -0.750709D-03 -0.399339D-04 -0.224526D-01
     30 -0.958370D-03  0.628283D-03  0.343306D-03  0.143141D-04  0.778388D-01
     31  0.201071D-04  0.180176D-03  0.188426D-03 -0.727865D-03 -0.543860D-01
     32  0.776707D-04  0.112231D-04 -0.196189D-03  0.149531D-02 -0.437190D-02
     33  0.828257D-04  0.199554D-04  0.670259D-04 -0.298425D-03  0.241744D-01
     34 -0.290027D-03 -0.731961D-02 -0.422697D-02  0.855569D-02  0.189838D-04
     35 -0.499601D-03 -0.145145D-01 -0.489937D-02  0.139238D-01 -0.160116D-03
     36 -0.179800D-03 -0.857803D-02 -0.652675D-02  0.862492D-02  0.129257D-03
     37  0.270863D-03  0.293085D-03 -0.301094D-02 -0.165973D-01  0.367880D-04
     38  0.400018D-03 -0.327978D-04 -0.189819D-02 -0.220111D-01  0.109035D-03
     39  0.409773D-03  0.254956D-03  0.123782D-02 -0.369367D-02  0.380803D-04
               11            12            13            14            15 
     11  0.499526D+00
     12  0.206083D-01  0.632551D+00
     13  0.645730D-02 -0.207029D-01  0.395378D+00
     14 -0.198557D-01  0.458935D-01 -0.253625D+00  0.674777D+00
     15  0.404975D-01 -0.248742D-01 -0.161416D+00  0.160964D+00  0.774620D+00
     16 -0.709042D-03  0.201348D-03  0.933995D-02 -0.985672D-02  0.518017D-02
     17  0.589399D-03 -0.238162D-03 -0.149562D-01 -0.373882D-01 -0.708369D-02
     18 -0.565169D-03  0.275223D-03  0.592991D-02 -0.747280D-02  0.818628D-03
     19  0.548241D-03 -0.200511D-03 -0.140187D-01  0.240351D-03  0.106313D-01
     20 -0.258863D-03 -0.168195D-03  0.292647D-01  0.123825D-02 -0.177830D-01
     21 -0.346233D-03  0.270323D-03 -0.416838D-02 -0.142308D-02  0.417775D-03
     22  0.190936D-03 -0.496373D-03 -0.341019D-02  0.118729D-02 -0.150422D-01
     23  0.179746D-03  0.102385D-02  0.495644D-02 -0.306636D-02  0.325072D-01
     24 -0.472503D-03  0.523061D-04  0.853033D-03 -0.711977D-03 -0.839064D-02
     25 -0.995263D-01 -0.640742D-01  0.104693D-02 -0.379824D-03  0.952664D-03
     26 -0.190943D+00 -0.928986D-01  0.838200D-03 -0.594980D-03 -0.924384D-02
     27 -0.100250D+00 -0.116384D+00 -0.306271D-03  0.242902D-02  0.299476D-02
     28 -0.147045D-01  0.721432D-01 -0.837662D-03  0.235755D-03  0.655874D-02
     29 -0.508985D-01  0.576915D-02  0.185215D-02  0.973622D-03 -0.602346D-02
     30  0.383246D-02 -0.739744D-01 -0.277952D-02  0.138368D-02  0.347939D-02
     31 -0.604611D-02  0.307486D-01 -0.185980D-02  0.333520D-02  0.200566D-02
     32 -0.487754D-01  0.136850D-01  0.373020D-02 -0.577154D-02 -0.404260D-02
     33  0.256481D-01 -0.327620D+00 -0.187758D-04 -0.360155D-03  0.153338D-02
     34  0.135779D-03 -0.184360D-04 -0.156509D-02  0.113148D-02  0.402236D-03
     35  0.119586D-04 -0.314972D-04 -0.209971D-02  0.164931D-02 -0.226715D-03
     36  0.304636D-04  0.540346D-04 -0.132291D-02  0.692763D-03 -0.354917D-03
     37  0.304924D-04  0.589179D-04 -0.754744D-03  0.697432D-03 -0.185056D-02
     38 -0.247732D-03  0.235407D-03 -0.118673D-02  0.177742D-02 -0.182463D-02
     39 -0.535573D-04  0.993686D-04 -0.376611D-03  0.535551D-03 -0.134493D-02
               16            17            18            19            20 
     16  0.345402D+00
     17  0.238916D+00  0.287153D+00
     18 -0.942843D-01  0.535635D-01  0.614638D+00
     19 -0.160861D-01 -0.498881D-02  0.958510D-02  0.265586D+00
     20 -0.238081D-01 -0.416303D-02  0.142593D-01 -0.482498D-02  0.524261D-01
     21 -0.843427D-02  0.178215D-03  0.740799D-02 -0.127091D+00  0.389960D-02
     22 -0.194087D-02  0.371703D-03 -0.197628D-01  0.779393D-02 -0.324342D-02
     23 -0.374432D-02 -0.777464D-03 -0.274288D-01 -0.625169D-03 -0.114899D-02
     24 -0.201222D-02 -0.192829D-02 -0.855042D-02 -0.283957D-02  0.139791D-02
     25 -0.536630D-04 -0.114618D-03 -0.381107D-04 -0.498267D-04  0.996948D-04
     26  0.773572D-04  0.772075D-04  0.118032D-03 -0.530537D-04  0.170892D-04
     27  0.276366D-04 -0.955942D-04 -0.654948D-04 -0.226776D-04  0.709220D-04
     28 -0.272864D-04 -0.134706D-05 -0.691535D-04  0.128941D-03 -0.739983D-04
     29  0.481623D-04  0.284830D-04  0.107587D-03 -0.190514D-03  0.141069D-03
     30 -0.239632D-04  0.134191D-03 -0.470201D-04  0.711608D-04 -0.130681D-03
     31 -0.378084D-04 -0.421663D-04 -0.366215D-04  0.132046D-04 -0.465095D-04
     32  0.751929D-04  0.162155D-03  0.915550D-04 -0.169606D-04  0.606310D-04
     33 -0.808875D-04 -0.350696D-05 -0.323494D-04 -0.421899D-05  0.219418D-04
     34 -0.176765D+00 -0.102608D+00  0.135132D+00 -0.162502D-02 -0.287018D-02
     35 -0.971617D-01 -0.730513D-01  0.611698D-01 -0.688557D-03 -0.236087D-02
     36  0.132976D+00  0.653960D-01 -0.169702D+00 -0.210183D-02 -0.217079D-02
     37 -0.365061D-01 -0.252429D-01 -0.875693D-02  0.120331D-02  0.116684D-02
     38 -0.246759D-01 -0.423689D-01 -0.598397D-01  0.169225D-03  0.100371D-02
     39 -0.602926D-02 -0.669438D-01 -0.342118D+00 -0.104332D-03 -0.222825D-03
               21            22            23            24            25 
     21  0.122048D+00
     22  0.262849D-01  0.587628D-01
     23 -0.144523D-02 -0.347587D-02  0.572935D-01
     24 -0.115938D-01  0.511716D-01 -0.259764D-01  0.337910D+00
     25  0.416294D-04 -0.269940D-04  0.260876D-04 -0.315599D-04  0.116907D+00
[...]
  Beta virt. eigenvalues --    1.17720   1.18948   1.21144   1.21940   1.23021
  Beta virt. eigenvalues --    1.23428   1.25208   1.28849   1.30325   1.33950
  Beta virt. eigenvalues --    1.35753   1.35968   1.37965   1.39496   1.40987
  Beta virt. eigenvalues --    1.42962   1.44516   1.45148   1.47346   1.48583
  Beta virt. eigenvalues --    1.50475   1.54077   1.55917   1.59241   1.61221
  Beta virt. eigenvalues --    1.64341   1.69690   1.71411   1.71952   1.73725
  Beta virt. eigenvalues --    1.81236   1.84034   1.93391   2.05563   2.10138
  Beta virt. eigenvalues --    2.16600   2.29410   2.32662   2.40235   2.45661
  Beta virt. eigenvalues --    2.48441   2.50993   2.55001   2.60800   2.63931
  Beta virt. eigenvalues --    2.68810   2.72743   2.74288   2.78226   2.83697
  Beta virt. eigenvalues --    2.85942   2.90467   2.94396   2.96060   2.97794
  Beta virt. eigenvalues --    2.97989   3.01700   3.03372   3.04276   3.06255
  Beta virt. eigenvalues --    3.08249   3.10282   3.12404   3.13480   3.15200
  Beta virt. eigenvalues --    3.16041   3.21831   3.22004   3.25613   3.27861
  Beta virt. eigenvalues --    3.28485   3.30473   3.34149   3.35787   3.36578
  Beta virt. eigenvalues --    3.41307   3.42460   3.43652   3.48695   3.48838
  Beta virt. eigenvalues --    3.51558   3.54477   3.55500   3.60155   3.63052
  Beta virt. eigenvalues --    3.64749   3.67076   3.70602   3.73886   3.75677
  Beta virt. eigenvalues --    3.79727   3.85579   3.86715   3.87635   3.88222
  Beta virt. eigenvalues --    3.93369   3.99441   4.01896   4.03008   4.07600
  Beta virt. eigenvalues --    4.09626   4.13211   4.13920   4.18623   4.20673
  Beta virt. eigenvalues --    4.21219   4.22557   4.26835   4.30271   4.31490
  Beta virt. eigenvalues --    4.35181   4.35973   4.38577   4.42828   4.43975
  Beta virt. eigenvalues --    4.47891   4.52235   4.59919   4.65646   4.91972
  Beta virt. eigenvalues --    4.95657   5.00766   5.08291   5.11469   5.16392
  Beta virt. eigenvalues --    5.22030   5.22905   5.25567   5.27003   5.37233
  Beta virt. eigenvalues --    5.45458   5.49637   5.51921   5.54119   5.55656
  Beta virt. eigenvalues --    5.56611   5.60262   5.61539   5.68473   5.74475
  Beta virt. eigenvalues --    5.78560   6.00465   6.08263   6.39920   6.46126
  Beta virt. eigenvalues --    6.67681   6.83384   6.95262   7.05034   7.11540
  Beta virt. eigenvalues --    7.15592   7.19636   7.25056   7.31853   7.52930
  Beta virt. eigenvalues --    7.66678   7.76808   7.82781  24.22501  24.43553
  Beta virt. eigenvalues --   24.48082  24.84600  50.17779  50.31200
          Condensed to atoms (all electrons):
               1          2          3          4          5          6
     1  O    8.213925  -0.096899  -0.119787   0.140576   0.157474  -0.026406
     2  O   -0.096899   8.159418   0.013461  -0.043109   0.377901  -0.026689
     3  C   -0.119787   0.013461   5.642311  -0.085953  -0.092482   0.132449
     4  C    0.140576  -0.043109  -0.085953   4.972447  -0.079786   0.003859
     5  C    0.157474   0.377901  -0.092482  -0.079786   5.625619  -0.119029
     6  C   -0.026406  -0.026689   0.132449   0.003859  -0.119029   5.600307
     7  H   -0.001737   0.004156   0.454640   0.003498  -0.072773  -0.045821
     8  H    0.007499  -0.005537   0.476388  -0.000926  -0.082687  -0.021653
     9  H   -0.035816  -0.003877  -0.002869   0.431233   0.004247  -0.001167
    10  H   -0.034528  -0.004291  -0.001793   0.427661   0.001271   0.001870
    11  H   -0.056880   0.003719   0.005323   0.423847   0.008909   0.000003
    12  H    0.000158   0.000145  -0.025148   0.000426  -0.008461   0.414262
    13  H   -0.001827   0.000264  -0.013563  -0.001260  -0.008767   0.406026
               7          8          9         10         11         12
     1  O   -0.001737   0.007499  -0.035816  -0.034528  -0.056880   0.000158
     2  O    0.004156  -0.005537  -0.003877  -0.004291   0.003719   0.000145
     3  C    0.454640   0.476388  -0.002869  -0.001793   0.005323  -0.025148
     4  C    0.003498  -0.000926   0.431233   0.427661   0.423847   0.000426
     5  C   -0.072773  -0.082687   0.004247   0.001271   0.008909  -0.008461
     6  C   -0.045821  -0.021653  -0.001167   0.001870   0.000003   0.414262
     7  H    0.505989  -0.023669   0.000020  -0.000057  -0.000011   0.003208
     8  H   -0.023669   0.480236   0.000012   0.000019   0.000007  -0.005777
     9  H    0.000020   0.000012   0.530081  -0.036821  -0.025244   0.000004
    10  H   -0.000057   0.000019  -0.036821   0.530280  -0.025274  -0.000007
    11  H   -0.000011   0.000007  -0.025244  -0.025274   0.532155  -0.000002
    12  H    0.003208  -0.005777   0.000004  -0.000007  -0.000002   0.463300
    13  H   -0.005531   0.002797  -0.000010   0.000059  -0.000001  -0.024323
              13
     1  O   -0.001827
     2  O    0.000264
     3  C   -0.013563
     4  C   -0.001260
     5  C   -0.008767
     6  C    0.406026
     7  H   -0.005531
     8  H    0.002797
     9  H   -0.000010
    10  H    0.000059
    11  H   -0.000001
    12  H   -0.024323
    13  H    0.465652
          Atomic-Atomic Spin Densities.
               1          2          3          4          5          6
     1  O    0.006125  -0.000847   0.010133   0.001201  -0.013548   0.000745
     2  O   -0.000847   0.023868   0.007238  -0.000662  -0.022271   0.005691
     3  C    0.010133   0.007238   0.002420  -0.000003  -0.066716  -0.043924
     4  C    0.001201  -0.000662  -0.000003   0.000326   0.001080   0.001849
     5  C   -0.013548  -0.022271  -0.066716   0.001080   0.209023  -0.051354
     6  C    0.000745   0.005691  -0.043924   0.001849  -0.051354   1.173566
     7  H    0.003024   0.001207   0.025514   0.000758  -0.023893  -0.018447
     8  H    0.000706   0.001577   0.012920   0.000066  -0.013311  -0.008833
     9  H   -0.001682   0.000691   0.000162   0.000252   0.000676  -0.000387
    10  H    0.000647  -0.000207  -0.000103  -0.000176  -0.000466   0.000561
    11  H    0.000250  -0.000112  -0.000248  -0.000051   0.000191  -0.000033
    12  H    0.000394  -0.000032   0.006180   0.000236  -0.003158  -0.003931
    13  H    0.000686   0.000229   0.004940   0.000123  -0.002439  -0.004294
               7          8          9         10         11         12
     1  O    0.003024   0.000706  -0.001682   0.000647   0.000250   0.000394
     2  O    0.001207   0.001577   0.000691  -0.000207  -0.000112  -0.000032
     3  C    0.025514   0.012920   0.000162  -0.000103  -0.000248   0.006180
     4  C    0.000758   0.000066   0.000252  -0.000176  -0.000051   0.000236
     5  C   -0.023893  -0.013311   0.000676  -0.000466   0.000191  -0.003158
     6  C   -0.018447  -0.008833  -0.000387   0.000561  -0.000033  -0.003931
     7  H    0.024961   0.003172  -0.000024   0.000006  -0.000001  -0.000036
     8  H    0.003172   0.012621  -0.000008   0.000002  -0.000001   0.000791
     9  H   -0.000024  -0.000008   0.000890  -0.000079  -0.000158   0.000000
    10  H    0.000006   0.000002  -0.000079   0.000075  -0.000023  -0.000004
    11  H   -0.000001  -0.000001  -0.000158  -0.000023   0.000179  -0.000000
    12  H   -0.000036   0.000791   0.000000  -0.000004  -0.000000  -0.044495
    13  H    0.001033  -0.000176   0.000002   0.000001  -0.000002   0.004774
              13
     1  O    0.000686
     2  O    0.000229
     3  C    0.004940
     4  C    0.000123
     5  C   -0.002439
     6  C   -0.004294
     7  H    0.001033
     8  H   -0.000176
     9  H    0.000002
    10  H    0.000001
    11  H   -0.000002
    12  H    0.004774
    13  H   -0.045697
 Mulliken charges and spin densities:
               1          2
     1  O   -0.145751   0.007835
     2  O   -0.378661   0.016371
     3  C   -0.382977  -0.041486
     4  C   -0.192513   0.005000
     5  C    0.288563   0.013814
     6  C   -0.318010   1.051209
     7  H    0.178088   0.017273
     8  H    0.173291   0.009528
     9  H    0.140208   0.000334
    10  H    0.141611   0.000235
    11  H    0.133450  -0.000009
    12  H    0.182216  -0.039281
    13  H    0.180486  -0.040821
 Sum of Mulliken charges =  -0.00000   1.00000
 Mulliken charges and spin densities with hydrogens summed into heavy atoms:
               1          2
     1  O   -0.145751   0.007835
     2  O   -0.378661   0.016371
     3  C   -0.031598  -0.014686
     4  C    0.222755   0.005559
     5  C    0.288563   0.013814
     6  C    0.044691   0.971107
 Electronic spatial extent (au):  <R**2>=            619.3551
 Charge=             -0.0000 electrons
 Dipole moment (field-independent basis, Debye):
    X=              0.1243    Y=             -1.7342    Z=              0.4640  Tot=              1.7995
 Quadrupole moment (field-independent basis, Debye-Ang):
   XX=            -31.8856   YY=            -40.6257   ZZ=            -35.6671
   XY=             -2.5275   XZ=             -0.0189   YZ=              1.7371
 Traceless Quadrupole moment (field-independent basis, Debye-Ang):
   XX=              4.1738   YY=             -4.5663   ZZ=              0.3924
   XY=             -2.5275   XZ=             -0.0189   YZ=              1.7371
 Octapole moment (field-independent basis, Debye-Ang**2):
  XXX=             21.7754  YYY=             -7.1638  ZZZ=              0.7466  XYY=              0.2142
  XXY=              0.3904  XXZ=             -2.0434  XZZ=              0.8782  YZZ=              1.0644
  YYZ=              2.0665  XYZ=              0.7957
 Hexadecapole moment (field-independent basis, Debye-Ang**3):
 XXXX=           -558.1098 YYYY=           -190.0321 ZZZZ=            -84.3208 XXXY=            -20.6190
 XXXZ=              7.0218 YYYX=             -7.3785 YYYZ=              1.8017 ZZZX=             -1.6565
 ZZZY=             -3.3616 XXYY=           -117.8030 XXZZ=           -101.4197 YYZZ=            -46.8122
 XXYZ=              0.9207 YYXZ=              0.9112 ZZXY=             -0.1869
 N-N= 2.380287347732D+02 E-N=-1.194358665106D+03  KE= 3.059327640017D+02
                          Isotropic Fermi Contact Couplings
        Atom                 a.u.       MegaHertz       Gauss      10(-4) cm-1
     1  O(17)              0.00078      -0.47500      -0.16949      -0.15844
     2  O(17)              0.00294      -1.78512      -0.63697      -0.59545
     3  C(13)             -0.03399     -38.21197     -13.63498     -12.74614
     4  C(13)              0.00024       0.27413       0.09782       0.09144
     5  C(13)              0.08335      93.69934      33.43425      31.25473
     6  C(13)              0.17740     199.43301      71.16266      66.52369
     7  H(1)               0.01042      46.56852      16.61680      15.53359
     8  H(1)               0.00487      21.79066       7.77545       7.26858
     9  H(1)               0.00005       0.23603       0.08422       0.07873
    10  H(1)               0.00008       0.36355       0.12972       0.12127
    11  H(1)               0.00003       0.11510       0.04107       0.03839
    12  H(1)              -0.01564     -69.88666     -24.93730     -23.31168
    13  H(1)              -0.01569     -70.11580     -25.01906     -23.38811
 --------------------------------------------------------
       Center         ----  Spin Dipole Couplings  ----
                      3XX-RR        3YY-RR        3ZZ-RR
 --------------------------------------------------------
     1   Atom       -0.011520      0.010587      0.000933
     2   Atom       -0.007256     -0.022056      0.029313
     3   Atom        0.005471     -0.007140      0.001670
     4   Atom        0.005130     -0.002684     -0.002446
     5   Atom        0.056194     -0.036124     -0.020070
     6   Atom        0.612946     -0.535310     -0.077636
     7   Atom       -0.004649     -0.008425      0.013075
     8   Atom       -0.008439      0.010064     -0.001624
     9   Atom        0.002761     -0.001355     -0.001406
    10   Atom        0.003528     -0.001902     -0.001626
    11   Atom        0.002618     -0.001170     -0.001448
    12   Atom        0.008430     -0.044644      0.036214
    13   Atom       -0.020186      0.073412     -0.053226
 --------------------------------------------------------
                        XY            XZ            YZ
 --------------------------------------------------------
     1   Atom       -0.000055     -0.000386      0.034588
     2   Atom       -0.013496     -0.080282      0.022732
     3   Atom        0.007951     -0.002656      0.005720
     4   Atom       -0.000199     -0.000538      0.000083
     5   Atom        0.022118     -0.037945     -0.006495
     6   Atom        0.097490     -0.736914     -0.066014
     7   Atom        0.001439      0.009888      0.004846
     8   Atom        0.004592      0.001653      0.011264
     9   Atom        0.000682      0.000821      0.000094
    10   Atom        0.000249     -0.001121     -0.000005
    11   Atom       -0.001007      0.000400     -0.000112
    12   Atom       -0.025307      0.022762     -0.052487
    13   Atom       -0.017791     -0.030447     -0.002165
 --------------------------------------------------------


 ---------------------------------------------------------------------------------
              Anisotropic Spin Dipole Couplings in Principal Axis System
 ---------------------------------------------------------------------------------

       Atom             a.u.   MegaHertz   Gauss  10(-4) cm-1        Axes

              Baa    -0.0292     2.111     0.753     0.704  0.0144 -0.6563  0.7544
     1 O(17)  Bbb    -0.0115     0.833     0.297     0.278  0.9999  0.0137 -0.0072
              Bcc     0.0407    -2.944    -1.050    -0.982 -0.0057  0.7544  0.6564
 
              Baa    -0.0716     5.181     1.849     1.728  0.7713 -0.0797  0.6315
     2 O(17)  Bbb    -0.0274     1.985     0.708     0.662  0.1947  0.9741 -0.1148
              Bcc     0.0990    -7.166    -2.557    -2.390 -0.6060  0.2115  0.7668
 
              Baa    -0.0136    -1.823    -0.651    -0.608 -0.4006  0.8328 -0.3820
     3 C(13)  Bbb     0.0043     0.574     0.205     0.191 -0.1822  0.3361  0.9240
              Bcc     0.0093     1.250     0.446     0.417  0.8979  0.4398  0.0170
 
              Baa    -0.0027    -0.364    -0.130    -0.121  0.0041  0.9560 -0.2934
     4 C(13)  Bbb    -0.0025    -0.331    -0.118    -0.110  0.0752  0.2922  0.9534
              Bcc     0.0052     0.694     0.248     0.232  0.9972 -0.0259 -0.0707
 
              Baa    -0.0417    -5.601    -1.998    -1.868 -0.3109  0.9109 -0.2713
     5 C(13)  Bbb    -0.0348    -4.668    -1.666    -1.557  0.2828  0.3612  0.8886
              Bcc     0.0765    10.269     3.664     3.425  0.9074  0.1995 -0.3699
 
              Baa    -0.5486   -73.613   -26.267   -24.555  0.4009  0.5805  0.7087
     6 C(13)  Bbb    -0.5414   -72.651   -25.924   -24.234 -0.3619  0.8110 -0.4596
              Bcc     1.0900   146.264    52.191    48.789  0.8416  0.0722 -0.5352
 
              Baa    -0.0099    -5.272    -1.881    -1.758  0.5124  0.7686 -0.3830
     7 H(1)   Bbb    -0.0085    -4.560    -1.627    -1.521  0.7616 -0.6128 -0.2109
              Bcc     0.0184     9.832     3.508     3.279  0.3968  0.1836  0.8994
 
              Baa    -0.0099    -5.301    -1.892    -1.768  0.8245 -0.4094  0.3908
     8 H(1)   Bbb    -0.0078    -4.187    -1.494    -1.397 -0.5367 -0.3463  0.7695
              Bcc     0.0178     9.488     3.386     3.165  0.1797  0.8441  0.5052
 
              Baa    -0.0016    -0.839    -0.299    -0.280 -0.2224  0.2945  0.9294
     9 H(1)   Bbb    -0.0015    -0.775    -0.276    -0.258 -0.0901  0.9430 -0.3203
              Bcc     0.0030     1.614     0.576     0.538  0.9708  0.1550  0.1832
 
              Baa    -0.0019    -1.035    -0.369    -0.345 -0.1376  0.8675 -0.4781
    10 H(1)   Bbb    -0.0018    -0.978    -0.349    -0.326  0.1556  0.4956  0.8545
              Bcc     0.0038     2.013     0.718     0.671  0.9782  0.0432 -0.2032
 
              Baa    -0.0015    -0.795    -0.284    -0.265 -0.0501  0.1856  0.9813
    11 H(1)   Bbb    -0.0014    -0.757    -0.270    -0.253  0.2543  0.9526 -0.1672
              Bcc     0.0029     1.552     0.554     0.518  0.9658 -0.2411  0.0949
 
              Baa    -0.0726   -38.759   -13.830   -12.929  0.1692  0.9011  0.3991
    12 H(1)   Bbb    -0.0042    -2.251    -0.803    -0.751  0.8895  0.0348 -0.4556
              Bcc     0.0769    41.010    14.633    13.679  0.4245 -0.4321  0.7957
 
              Baa    -0.0722   -38.516   -13.743   -12.847  0.5232  0.0765  0.8488
    13 H(1)   Bbb    -0.0046    -2.447    -0.873    -0.816  0.8310  0.1749 -0.5280
              Bcc     0.0768    40.963    14.617    13.664 -0.1889  0.9816  0.0279
 

 ---------------------------------------------------------------------------------

 No NMR shielding tensors so no spin-rotation constants.
 Leave Link  601 at Mon Mar 11 01:30:20 2019, MaxMem=   671088640 cpu:               8.3 elap:               0.5
 (Enter /shared/centos7/gaussian/g16/l9999.exe)
 1\1\GINC-C0170\Scan\UM062X\6-311+G(2df,2p)\C4H7O2(2)\UNDERKOFFLER.C\11
 -Mar-2019\0\\#p m062x/6-311+g(2df,2p) Opt=(CalcFC,ModRedun)\\Gaussian 
 Input Prepared from Scan Object\\0,2\O,0.037516647,0.2795981379,-1.390
 4133246\O,-1.9840848915,-0.4017850525,-0.7155947827\C,-0.0445787058,-1
 .7377429319,-0.1674353022\C,-0.5851096062,1.3892442184,-2.0340144635\C
 ,-0.7970777679,-0.5607761275,-0.7633884364\C,0.394693728,-2.6671861451
 ,-1.245657438\H,0.8159881418,-1.3448861414,0.3759372361\H,-0.722103821
 6,-2.2256909031,0.5286572012\H,-1.119075541,1.9973728978,-1.3065901773
 \H,-1.2887690127,1.0417827979,-2.7878251536\H,0.2172609222,1.957420612
 2,-2.4922005463\H,-0.2606250886,-3.4556660689,-1.5799547161\H,1.270239
 3981,-2.4387180588,-1.8321712999\\Version=EM64L-G16RevA.03\State=2-A\H
 F=-307.0034966,-307.0033397,-307.0029393,-307.0024381,-307.0019865,-30
 7.0016843,-307.001579,-307.001682,-307.0019797,-307.0024288,-307.00293
 03,-307.0033356,-307.0034964,-307.0033514,-307.0029631,-307.0024682,-3
 07.0020137,-307.0017,-307.0015799,-307.0016684,-307.0019567,-307.00240
 53,-307.0029165,-307.0033333,-307.0034966,-307.0033378,-307.0029255,-3
 07.002414,-307.0019619,-307.0016697,-307.0015792,-307.0016982,-307.002
 0083,-307.002461,-307.0029556,-307.0033481,-307.0034966\S2=0.755528,0.
 755529,0.755529,0.755527,0.755525,0.755523,0.755523,0.755522,0.755523,
 0.755523,0.755524,0.755525,0.755528,0.755529,0.755529,0.755528,0.75552
 6,0.755523,0.755522,0.755522,0.755523,0.755524,0.755524,0.755525,0.755
 528,0.755529,0.755529,0.755528,0.755525,0.755523,0.755522,0.755523,0.7
 55523,0.755524,0.755524,0.755526,0.755528\S2-1=0.,0.,0.,0.,0.,0.,0.,0.
 ,0.,0.,0.,0.,0.,0.,0.,0.,0.,0.,0.,0.,0.,0.,0.,0.,0.,0.,0.,0.,0.,0.,0.,
 0.,0.,0.,0.,0.,0.\S2A=0.750024,0.750024,0.750024,0.750024,0.750024,0.7
 50024,0.750024,0.750024,0.750024,0.750024,0.750024,0.750024,0.750024,0
 .750024,0.750024,0.750024,0.750024,0.750024,0.750024,0.750024,0.750024
 ,0.750024,0.750024,0.750024,0.750024,0.750024,0.750024,0.750024,0.7500
 24,0.750024,0.750024,0.750024,0.750024,0.750024,0.750024,0.750024,0.75
 0024\RMSD=5.088e-09,5.901e-09,5.048e-09,5.185e-09,7.339e-09,3.202e-09,
 8.041e-09,7.145e-09,8.452e-09,4.281e-09,6.416e-09,3.067e-09,6.110e-09,
 6.846e-09,6.665e-09,7.751e-09,4.477e-09,3.094e-09,2.385e-09,8.741e-09,
 8.946e-09,6.884e-09,2.270e-09,5.537e-09,5.889e-09,3.358e-09,2.994e-09,
 8.765e-09,9.553e-09,8.383e-09,6.860e-09,7.899e-09,2.899e-09,7.271e-09,
 7.946e-09,3.335e-09,5.198e-09\PG=C01 [X(C4H7O2)]\\@


 LET US PLACE AT THE END OF EVERY CHAPTER.....THE
 TWO LETTERS USED BY THE ROMAN JUDGES WHEN THEY DID
 NOT UNDERSTAND A PLEADING.
 N. L. -NON LIQUET- IT IS NOT CLEAR.
                                              -- VOLTAIRE
 Job cpu time:       1 days  4 hours  4 minutes 19.3 seconds.
 Elapsed time:       0 days  1 hours 24 minutes 52.5 seconds.
 File lengths (MBytes):  RWF=   1392 Int=      0 D2E=      0 Chk=     32 Scr=     32
 Normal termination of Gaussian 16 at Mon Mar 11 01:30:20 2019.
