 Entering Gaussian System, Link 0=g16
 Input=RJUFJBKOKNCXHH-UHFFFAOYSA-N_12by30.0_tor25_a1.com
 Output=RJUFJBKOKNCXHH-UHFFFAOYSA-N_12by30.0_tor25_a1.log
 Initial command:
 /shared/centos7/gaussian/g16/l1.exe "/scratch/underkoffler.c/gaussian_scratch/Gau-5430.inp" -scrdir="/scratch/underkoffler.c/gaussian_scratch/"
 Entering Link 1 = /shared/centos7/gaussian/g16/l1.exe PID=      5431.
  
 Copyright (c) 1988,1990,1992,1993,1995,1998,2003,2009,2016,
            Gaussian, Inc.  All Rights Reserved.
  
 This is part of the Gaussian(R) 16 program.  It is based on
 the Gaussian(R) 09 system (copyright 2009, Gaussian, Inc.),
 the Gaussian(R) 03 system (copyright 2003, Gaussian, Inc.),
 the Gaussian(R) 98 system (copyright 1998, Gaussian, Inc.),
 the Gaussian(R) 94 system (copyright 1995, Gaussian, Inc.),
 the Gaussian 92(TM) system (copyright 1992, Gaussian, Inc.),
 the Gaussian 90(TM) system (copyright 1990, Gaussian, Inc.),
 the Gaussian 88(TM) system (copyright 1988, Gaussian, Inc.),
 the Gaussian 86(TM) system (copyright 1986, Carnegie Mellon
 University), and the Gaussian 82(TM) system (copyright 1983,
 Carnegie Mellon University). Gaussian is a federally registered
 trademark of Gaussian, Inc.
  
 This software contains proprietary and confidential information,
 including trade secrets, belonging to Gaussian, Inc.
  
 This software is provided under written license and may be
 used, copied, transmitted, or stored only in accord with that
 written license.
  
 The following legend is applicable only to US Government
 contracts under FAR:
  
                    RESTRICTED RIGHTS LEGEND
  
 Use, reproduction and disclosure by the US Government is
 subject to restrictions as set forth in subparagraphs (a)
 and (c) of the Commercial Computer Software - Restricted
 Rights clause in FAR 52.227-19.
  
 Gaussian, Inc.
 340 Quinnipiac St., Bldg. 40, Wallingford CT 06492
  
  
 ---------------------------------------------------------------
 Warning -- This program may not be used in any manner that
 competes with the business of Gaussian, Inc. or will provide
 assistance to any competitor of Gaussian, Inc.  The licensee
 of this program is prohibited from giving any competitor of
 Gaussian, Inc. access to this program.  By using this program,
 the user acknowledges that Gaussian, Inc. is engaged in the
 business of creating and licensing software in the field of
 computational chemistry and represents and warrants to the
 licensee that it is not a competitor of Gaussian, Inc. and that
 it will not use this program in any manner prohibited above.
 ---------------------------------------------------------------
  

 Cite this work as:
 Gaussian 16, Revision A.03,
 M. J. Frisch, G. W. Trucks, H. B. Schlegel, G. E. Scuseria, 
 M. A. Robb, J. R. Cheeseman, G. Scalmani, V. Barone, 
 G. A. Petersson, H. Nakatsuji, X. Li, M. Caricato, A. V. Marenich, 
 J. Bloino, B. G. Janesko, R. Gomperts, B. Mennucci, H. P. Hratchian, 
 J. V. Ortiz, A. F. Izmaylov, J. L. Sonnenberg, D. Williams-Young, 
 F. Ding, F. Lipparini, F. Egidi, J. Goings, B. Peng, A. Petrone, 
 T. Henderson, D. Ranasinghe, V. G. Zakrzewski, J. Gao, N. Rega, 
 G. Zheng, W. Liang, M. Hada, M. Ehara, K. Toyota, R. Fukuda, 
 J. Hasegawa, M. Ishida, T. Nakajima, Y. Honda, O. Kitao, H. Nakai, 
 T. Vreven, K. Throssell, J. A. Montgomery, Jr., J. E. Peralta, 
 F. Ogliaro, M. J. Bearpark, J. J. Heyd, E. N. Brothers, K. N. Kudin, 
 V. N. Staroverov, T. A. Keith, R. Kobayashi, J. Normand, 
 K. Raghavachari, A. P. Rendell, J. C. Burant, S. S. Iyengar, 
 J. Tomasi, M. Cossi, J. M. Millam, M. Klene, C. Adamo, R. Cammi, 
 J. W. Ochterski, R. L. Martin, K. Morokuma, O. Farkas, 
 J. B. Foresman, and D. J. Fox, Gaussian, Inc., Wallingford CT, 2016.
 
 ******************************************
 Gaussian 16:  EM64L-G16RevA.03 25-Dec-2016
                29-Mar-2019 
 ******************************************
 %nprocshared=20
 Will use up to   20 processors via shared memory.
 %mem=5GB
 ----------------------------------------------
 #p m062x/6-311+g(2df,2p) Opt=(CalcFC,ModRedun)
 ----------------------------------------------
 1/10=4,18=120,19=15,26=3,38=1/1,3;
 2/9=110,12=2,17=6,18=5,40=1/2;
 3/5=4,6=6,7=214,11=2,25=1,30=1,71=2,74=-55,140=1/1,2,3;
 4//1;
 5/5=2,38=5/2;
 8/6=4,10=90,11=11/1;
 11/6=1,8=1,9=11,15=111,16=1/1,2,10;
 10/6=1,13=1/2;
 6/7=2,8=2,9=2,10=2,28=1/1;
 7/10=1,18=20,25=1/1,2,3,16;
 1/10=4,18=20,19=15,26=3/3(2);
 2/9=110/2;
 99//99;
 2/9=110/2;
 3/5=4,6=6,7=214,11=2,25=1,30=1,71=1,74=-55/1,2,3;
 4/5=5,16=3,69=1/1;
 5/5=2,38=5/2;
 7//1,2,3,16;
 1/18=20,19=15,26=3/3(-5);
 2/9=110/2;
 6/7=2,8=2,9=2,10=2,19=2,28=1/1;
 99/9=1/99;
 Leave Link    1 at Fri Mar 29 16:03:01 2019, MaxMem=   671088640 cpu:              18.7 elap:               1.0
 (Enter /shared/centos7/gaussian/g16/l101.exe)
 ----------------------------------------
 Gaussian Input Prepared from Scan Object
 ----------------------------------------
 Symbolic Z-matrix:
 Charge =  0 Multiplicity = 1
 O                     1.14326  -0.70073   0. 
 O                     0.10186   1.27773  0. 
 C                    -1.21113  -0.74369  0. 
 C                    -2.46073   0.11987   0. 
 C                     2.38807  -0.00667   0. 
 C                     0.05125   0.07888  0. 
 H                    -1.17195  -1.40094  -0.87043 
 H                    -1.17195  -1.40095   0.87042 
 H                    -2.48427   0.76359   0.87706 
 H                    -3.3542   -0.5015    0. 
 H                    -2.48427   0.76359  -0.87705 
 H                     3.15708  -0.77177   0. 
 H                     2.47194   0.62082  -0.88515 
 H                     2.47194   0.62082   0.88515 
 
 The following ModRedundant input section has been read:
 B       3       7 B                                                           
 B       5      14 B                                                           
 B       1       6 B                                                           
 B       4      10 B                                                           
 B       4      11 B                                                           
 B       4       9 B                                                           
 B       5      12 B                                                           
 B       5      13 B                                                           
 B       2       6 B                                                           
 B       3       4 B                                                           
 B       3       6 B                                                           
 B       3       8 B                                                           
 B       1       5 B                                                           
 D       4       3       6       2 S  12 30.000                                
 
 ITRead=  0  0  0  0  0  0  0  0  0  0  0  0  0  0
 MicOpt= -1 -1 -1 -1 -1 -1 -1 -1 -1 -1 -1 -1 -1 -1
 NAtoms=     14 NQM=       14 NQMF=       0 NMMI=      0 NMMIF=      0
                NMic=       0 NMicF=      0.
                    Isotopes and Nuclear Properties:
 (Nuclear quadrupole moments (NQMom) in fm**2, nuclear magnetic moments (NMagM)
  in nuclear magnetons)

  Atom         1           2           3           4           5           6           7           8           9          10
 IAtWgt=          16          16          12          12          12          12           1           1           1           1
 AtmWgt=  15.9949146  15.9949146  12.0000000  12.0000000  12.0000000  12.0000000   1.0078250   1.0078250   1.0078250   1.0078250
 NucSpn=           0           0           0           0           0           0           1           1           1           1
 AtZEff=  -0.0000000  -0.0000000  -0.0000000  -0.0000000  -0.0000000  -0.0000000  -0.0000000  -0.0000000  -0.0000000  -0.0000000
 NQMom=    0.0000000   0.0000000   0.0000000   0.0000000   0.0000000   0.0000000   0.0000000   0.0000000   0.0000000   0.0000000
 NMagM=    0.0000000   0.0000000   0.0000000   0.0000000   0.0000000   0.0000000   2.7928460   2.7928460   2.7928460   2.7928460
 AtZNuc=   8.0000000   8.0000000   6.0000000   6.0000000   6.0000000   6.0000000   1.0000000   1.0000000   1.0000000   1.0000000

  Atom        11          12          13          14
 IAtWgt=           1           1           1           1
 AtmWgt=   1.0078250   1.0078250   1.0078250   1.0078250
 NucSpn=           1           1           1           1
 AtZEff=  -0.0000000  -0.0000000  -0.0000000  -0.0000000
 NQMom=    0.0000000   0.0000000   0.0000000   0.0000000
 NMagM=    2.7928460   2.7928460   2.7928460   2.7928460
 AtZNuc=   1.0000000   1.0000000   1.0000000   1.0000000
 Leave Link  101 at Fri Mar 29 16:03:02 2019, MaxMem=   671088640 cpu:               6.9 elap:               0.4
 (Enter /shared/centos7/gaussian/g16/l103.exe)

 GradGradGradGradGradGradGradGradGradGradGradGradGradGradGradGradGradGrad
 Berny optimization.
 Initialization pass.
                           ----------------------------
                           !    Initial Parameters    !
                           ! (Angstroms and Degrees)  !
 --------------------------                            --------------------------
 ! Name  Definition              Value          Derivative Info.                !
 --------------------------------------------------------------------------------
 ! R1    R(1,5)                  1.4252         calculate D2E/DX2 analytically  !
 ! R2    R(1,6)                  1.3417         calculate D2E/DX2 analytically  !
 ! R3    R(2,6)                  1.1999         calculate D2E/DX2 analytically  !
 ! R4    R(3,4)                  1.519          calculate D2E/DX2 analytically  !
 ! R5    R(3,6)                  1.5067         calculate D2E/DX2 analytically  !
 ! R6    R(3,7)                  1.0914         calculate D2E/DX2 analytically  !
 ! R7    R(3,8)                  1.0914         calculate D2E/DX2 analytically  !
 ! R8    R(4,9)                  1.0882         calculate D2E/DX2 analytically  !
 ! R9    R(4,10)                 1.0883         calculate D2E/DX2 analytically  !
 ! R10   R(4,11)                 1.0882         calculate D2E/DX2 analytically  !
 ! R11   R(5,12)                 1.0848         calculate D2E/DX2 analytically  !
 ! R12   R(5,13)                 1.0882         calculate D2E/DX2 analytically  !
 ! R13   R(5,14)                 1.0882         calculate D2E/DX2 analytically  !
 ! A1    A(5,1,6)              115.3337         calculate D2E/DX2 analytically  !
 ! A2    A(4,3,6)              112.265          calculate D2E/DX2 analytically  !
 ! A3    A(4,3,7)              111.8328         calculate D2E/DX2 analytically  !
 ! A4    A(4,3,8)              111.8328         calculate D2E/DX2 analytically  !
 ! A5    A(6,3,7)              107.379          calculate D2E/DX2 analytically  !
 ! A6    A(6,3,8)              107.379          calculate D2E/DX2 analytically  !
 ! A7    A(7,3,8)              105.7892         calculate D2E/DX2 analytically  !
 ! A8    A(3,4,9)              110.7385         calculate D2E/DX2 analytically  !
 ! A9    A(3,4,10)             110.5363         calculate D2E/DX2 analytically  !
 ! A10   A(3,4,11)             110.7385         calculate D2E/DX2 analytically  !
 ! A11   A(9,4,10)             108.6625         calculate D2E/DX2 analytically  !
 ! A12   A(9,4,11)             107.409          calculate D2E/DX2 analytically  !
 ! A13   A(10,4,11)            108.6625         calculate D2E/DX2 analytically  !
 ! A14   A(1,5,12)             106.0037         calculate D2E/DX2 analytically  !
 ! A15   A(1,5,13)             110.3716         calculate D2E/DX2 analytically  !
 ! A16   A(1,5,14)             110.3716         calculate D2E/DX2 analytically  !
 ! A17   A(12,5,13)            110.6129         calculate D2E/DX2 analytically  !
 ! A18   A(12,5,14)            110.6129         calculate D2E/DX2 analytically  !
 ! A19   A(13,5,14)            108.8545         calculate D2E/DX2 analytically  !
 ! A20   A(1,6,2)              123.1066         calculate D2E/DX2 analytically  !
 ! A21   A(1,6,3)              111.3877         calculate D2E/DX2 analytically  !
 ! A22   A(2,6,3)              125.5057         calculate D2E/DX2 analytically  !
 ! D1    D(6,1,5,12)          -180.0            calculate D2E/DX2 analytically  !
 ! D2    D(6,1,5,13)           -60.186          calculate D2E/DX2 analytically  !
 ! D3    D(6,1,5,14)            60.186          calculate D2E/DX2 analytically  !
 ! D4    D(5,1,6,2)              0.0            calculate D2E/DX2 analytically  !
 ! D5    D(5,1,6,3)            180.0            calculate D2E/DX2 analytically  !
 ! D6    D(6,3,4,9)            -59.521          calculate D2E/DX2 analytically  !
 ! D7    D(6,3,4,10)           180.0            calculate D2E/DX2 analytically  !
 ! D8    D(6,3,4,11)            59.521          calculate D2E/DX2 analytically  !
 ! D9    D(7,3,4,9)            179.7004         calculate D2E/DX2 analytically  !
 ! D10   D(7,3,4,10)            59.2214         calculate D2E/DX2 analytically  !
 ! D11   D(7,3,4,11)           -61.2576         calculate D2E/DX2 analytically  !
 ! D12   D(8,3,4,9)             61.2575         calculate D2E/DX2 analytically  !
 ! D13   D(8,3,4,10)           -59.2214         calculate D2E/DX2 analytically  !
 ! D14   D(8,3,4,11)          -179.7004         calculate D2E/DX2 analytically  !
 ! D15   D(4,3,6,1)            179.9998         calculate D2E/DX2 analytically  !
 ! D16   D(4,3,6,2)             -0.0002         Scan                            !
 ! D17   D(7,3,6,1)            -56.6864         calculate D2E/DX2 analytically  !
 ! D18   D(7,3,6,2)            123.3136         calculate D2E/DX2 analytically  !
 ! D19   D(8,3,6,1)             56.6861         calculate D2E/DX2 analytically  !
 ! D20   D(8,3,6,2)           -123.3139         calculate D2E/DX2 analytically  !
 --------------------------------------------------------------------------------
 Trust Radius=3.00D-01 FncErr=1.00D-07 GrdErr=1.00D-06 EigMax=2.50D+02 EigMin=1.00D-04
 Number of optimizations in scan=  13
 Number of steps in this run=     65 maximum allowed number of steps=    100.
 GradGradGradGradGradGradGradGradGradGradGradGradGradGradGradGradGradGrad

 Leave Link  103 at Fri Mar 29 16:03:02 2019, MaxMem=   671088640 cpu:               0.3 elap:               0.0
 (Enter /shared/centos7/gaussian/g16/l202.exe)
                          Input orientation:                          
 ---------------------------------------------------------------------
 Center     Atomic      Atomic             Coordinates (Angstroms)
 Number     Number       Type             X           Y           Z
 ---------------------------------------------------------------------
      1          8           0        1.143256   -0.700732    0.000000
      2          8           0        0.101861    1.277730   -0.000000
      3          6           0       -1.211130   -0.743685   -0.000001
      4          6           0       -2.460734    0.119865    0.000002
      5          6           0        2.388074   -0.006671    0.000001
      6          6           0        0.051249    0.078882   -0.000000
      7          1           0       -1.171953   -1.400941   -0.870426
      8          1           0       -1.171952   -1.400946    0.870420
      9          1           0       -2.484273    0.763589    0.877061
     10          1           0       -3.354195   -0.501498    0.000000
     11          1           0       -2.484274    0.763594   -0.877054
     12          1           0        3.157077   -0.771767    0.000001
     13          1           0        2.471940    0.620820   -0.885153
     14          1           0        2.471940    0.620820    0.885154
 ---------------------------------------------------------------------
                    Distance matrix (angstroms):
                    1          2          3          4          5
     1  O    0.000000
     2  O    2.235803   0.000000
     3  C    2.354779   2.410408   0.000000
     4  C    3.696232   2.812036   1.518957   0.000000
     5  C    1.425234   2.622300   3.673890   4.850460   0.000000
     6  C    1.341744   1.199916   1.506724   2.512318   2.338391
     7  H    2.570628   3.091201   1.091403   2.175191   3.921151
     8  H    2.570626   3.091203   1.091403   2.175191   3.921150
     9  H    4.009045   2.778789   2.159168   1.088195   5.010221
    10  H    4.501863   3.887156   2.156706   1.088285   5.763551
    11  H    4.009046   2.778787   2.159168   1.088195   5.010221
    12  H    2.015074   3.678965   4.368298   5.688130   1.084775
    13  H    2.072534   2.613867   4.026211   5.036441   1.088244
    14  H    2.072534   2.613867   4.026212   5.036440   1.088244
                    6          7          8          9         10
     6  C    0.000000
     7  H    2.108018   0.000000
     8  H    2.108018   1.740846   0.000000
     9  H    2.768923   3.075888   2.531293   0.000000
    10  H    3.454547   2.515715   2.515716   1.768176   0.000000
    11  H    2.768923   2.531293   3.075888   1.754116   1.768176
    12  H    3.220213   4.460270   4.460268   5.911970   6.516880
    13  H    2.633807   4.167216   4.521894   5.262113   5.998913
    14  H    2.633807   4.521895   4.167217   4.958276   5.998912
                   11         12         13         14
    11  H    0.000000
    12  H    5.911972   0.000000
    13  H    4.958277   1.786676   0.000000
    14  H    5.262112   1.786676   1.770306   0.000000
 Stoichiometry    C4H8O2
 Framework group  C1[X(C4H8O2)]
 Deg. of freedom    36
 Full point group                 C1      NOp   1
 Largest Abelian subgroup         C1      NOp   1
 Largest concise Abelian subgroup C1      NOp   1
                         Standard orientation:                         
 ---------------------------------------------------------------------
 Center     Atomic      Atomic             Coordinates (Angstroms)
 Number     Number       Type             X           Y           Z
 ---------------------------------------------------------------------
      1          8           0        1.143256   -0.700732    0.000000
      2          8           0        0.101861    1.277730   -0.000000
      3          6           0       -1.211130   -0.743685   -0.000001
      4          6           0       -2.460734    0.119865    0.000001
      5          6           0        2.388074   -0.006671    0.000000
      6          6           0        0.051249    0.078882   -0.000000
      7          1           0       -1.171953   -1.400941   -0.870426
      8          1           0       -1.171952   -1.400946    0.870420
      9          1           0       -2.484273    0.763589    0.877061
     10          1           0       -3.354195   -0.501498    0.000000
     11          1           0       -2.484274    0.763594   -0.877055
     12          1           0        3.157078   -0.771767    0.000001
     13          1           0        2.471940    0.620820   -0.885153
     14          1           0        2.471940    0.620821    0.885153
 ---------------------------------------------------------------------
 Rotational constants (GHZ):           9.6754876           2.1660943           1.8295412
 Leave Link  202 at Fri Mar 29 16:03:02 2019, MaxMem=   671088640 cpu:               0.2 elap:               0.0
 (Enter /shared/centos7/gaussian/g16/l301.exe)
 Standard basis: 6-311+G(2df,2p) (5D, 7F)
 Ernie: Thresh=  0.10000D-02 Tol=  0.10000D-05 Strict=F.
 There are   306 symmetry adapted cartesian basis functions of A   symmetry.
 There are   276 symmetry adapted basis functions of A   symmetry.
   276 basis functions,   400 primitive gaussians,   306 cartesian basis functions
    24 alpha electrons       24 beta electrons
       nuclear repulsion energy       246.5133791555 Hartrees.
 IExCor= 4336 DFT=T Ex+Corr=M062X ExCW=0 ScaHFX=  0.540000
 ScaDFX=  1.000000  1.000000  1.000000  1.000000 ScalE2=  1.000000  1.000000
 IRadAn=      5 IRanWt=     -1 IRanGd=            0 ICorTp=0 IEmpDi=  4
 NAtoms=   14 NActive=   14 NUniq=   14 SFac= 1.00D+00 NAtFMM=   60 NAOKFM=F Big=F
 Integral buffers will be    131072 words long.
 Raffenetti 2 integral format.
 Two-electron integral symmetry is turned on.
 Leave Link  301 at Fri Mar 29 16:03:02 2019, MaxMem=   671088640 cpu:               1.3 elap:               0.1
 (Enter /shared/centos7/gaussian/g16/l302.exe)
 NPDir=0 NMtPBC=     1 NCelOv=     1 NCel=       1 NClECP=     1 NCelD=      1
         NCelK=      1 NCelE2=     1 NClLst=     1 CellRange=     0.0.
 One-electron integrals computed using PRISM.
 One-electron integral symmetry used in STVInt
 NBasis=   276 RedAO= T EigKep=  2.92D-05  NBF=   276
 NBsUse=   276 1.00D-06 EigRej= -1.00D+00 NBFU=   276
 Precomputing XC quadrature grid using
 IXCGrd= 4 IRadAn=           5 IRanWt=          -1 IRanGd=           0 AccXCQ= 0.00D+00.
 Generated NRdTot=       0 NPtTot=           0 NUsed=           0 NTot=          32
 NSgBfM=   306   306   306   306   306 MxSgAt=    14 MxSgA2=    14.
 Leave Link  302 at Fri Mar 29 16:03:02 2019, MaxMem=   671088640 cpu:               8.8 elap:               0.5
 (Enter /shared/centos7/gaussian/g16/l303.exe)
 DipDrv:  MaxL=1.
 Leave Link  303 at Fri Mar 29 16:03:03 2019, MaxMem=   671088640 cpu:               0.7 elap:               0.1
 (Enter /shared/centos7/gaussian/g16/l401.exe)
 ExpMin= 4.38D-02 ExpMax= 8.59D+03 ExpMxC= 1.30D+03 IAcc=3 IRadAn=         5 AccDes= 0.00D+00
 Harris functional with IExCor= 1009 and IRadAn=       5 diagonalized for initial guess.
 HarFok:  IExCor= 1009 AccDes= 0.00D+00 IRadAn=         5 IDoV= 1 UseB2=F ITyADJ=14
 ICtDFT=  3500011 ScaDFX=  1.000000  1.000000  1.000000  1.000000
 FoFCou: FMM=F IPFlag=           0 FMFlag=      100000 FMFlg1=           0
         NFxFlg=           0 DoJE=T BraDBF=F KetDBF=T FulRan=T
         wScrn=  0.000000 ICntrl=       500 IOpCl=  0 I1Cent=   200000004 NGrid=           0
         NMat0=    1 NMatS0=      1 NMatT0=    0 NMatD0=    1 NMtDS0=    0 NMtDT0=    0
 Petite list used in FoFCou.
 Harris En= -307.574768962630    
 JPrj=0 DoOrth=F DoCkMO=F.
 Leave Link  401 at Fri Mar 29 16:03:04 2019, MaxMem=   671088640 cpu:              29.3 elap:               1.5
 (Enter /shared/centos7/gaussian/g16/l502.exe)
 Integral symmetry usage will be decided dynamically.
 Closed shell SCF:
 Using DIIS extrapolation, IDIIS=  1040.
 NGot=   671088640 LenX=   670892442 LenY=   670798365
 Requested convergence on RMS density matrix=1.00D-08 within 128 cycles.
 Requested convergence on MAX density matrix=1.00D-06.
 Requested convergence on             energy=1.00D-06.
 No special actions if energy rises.
 Fock matrices will be formed incrementally for  20 cycles.

 Cycle   1  Pass 1  IDiag  1:
 FoFJK:  IHMeth= 1 ICntrl=       0 DoSepK=F KAlg= 0 I1Cent=           0 FoldK=F
 IRaf= 960000000 NMat=       1 IRICut=       1 DoRegI=T DoRafI=F ISym2E= 0 IDoP0=0 IntGTp=1.
 FoFCou: FMM=F IPFlag=           0 FMFlag=      100000 FMFlg1=           0
         NFxFlg=           0 DoJE=F BraDBF=F KetDBF=F FulRan=T
         wScrn=  0.000000 ICntrl=         0 IOpCl=  0 I1Cent=           0 NGrid=           0
         NMat0=    1 NMatS0=      1 NMatT0=    0 NMatD0=    1 NMtDS0=    0 NMtDT0=    0
 Symmetry not used in FoFCou.
 E= -307.466600672735    
 DIIS: error= 3.26D-02 at cycle   1 NSaved=   1.
 NSaved= 1 IEnMin= 1 EnMin= -307.466600672735     IErMin= 1 ErrMin= 3.26D-02
 ErrMax= 3.26D-02  0.00D+00 EMaxC= 1.00D-01 BMatC= 2.86D-01 BMatP= 2.86D-01
 IDIUse=3 WtCom= 6.74D-01 WtEn= 3.26D-01
 Coeff-Com:  0.100D+01
 Coeff-En:   0.100D+01
 Coeff:      0.100D+01
 Gap=     0.322 Goal=   None    Shift=    0.000
 GapD=    0.322 DampG=1.000 DampE=0.500 DampFc=0.5000 IDamp=-1.
 Damping current iteration by 5.00D-01
 RMSDP=2.70D-03 MaxDP=1.09D-01              OVMax= 1.90D-01

 Cycle   2  Pass 1  IDiag  1:
 RMSU=  1.32D-03    CP:  9.71D-01
 E= -307.566995409291     Delta-E=       -0.100394736557 Rises=F Damp=T
 DIIS: error= 5.85D-03 at cycle   2 NSaved=   2.
 NSaved= 2 IEnMin= 2 EnMin= -307.566995409291     IErMin= 2 ErrMin= 5.85D-03
 ErrMax= 5.85D-03  0.00D+00 EMaxC= 1.00D-01 BMatC= 2.29D-02 BMatP= 2.86D-01
 IDIUse=3 WtCom= 9.41D-01 WtEn= 5.85D-02
 Coeff-Com: -0.253D-01 0.103D+01
 Coeff-En:   0.000D+00 0.100D+01
 Coeff:     -0.238D-01 0.102D+01
 Gap=     0.388 Goal=   None    Shift=    0.000
 RMSDP=1.08D-03 MaxDP=8.07D-02 DE=-1.00D-01 OVMax= 1.12D-01

 Cycle   3  Pass 1  IDiag  1:
 RMSU=  1.04D-03    CP:  9.42D-01  9.57D-01
 E= -307.665118869109     Delta-E=       -0.098123459818 Rises=F Damp=F
 DIIS: error= 7.46D-03 at cycle   3 NSaved=   3.
 NSaved= 3 IEnMin= 3 EnMin= -307.665118869109     IErMin= 2 ErrMin= 5.85D-03
 ErrMax= 7.46D-03  0.00D+00 EMaxC= 1.00D-01 BMatC= 1.57D-02 BMatP= 2.29D-02
 IDIUse=3 WtCom= 9.25D-01 WtEn= 7.46D-02
 Coeff-Com: -0.816D-01 0.486D+00 0.596D+00
 Coeff-En:   0.000D+00 0.000D+00 0.100D+01
 Coeff:     -0.755D-01 0.450D+00 0.626D+00
 Gap=     0.369 Goal=   None    Shift=    0.000
 RMSDP=3.85D-04 MaxDP=1.59D-02 DE=-9.81D-02 OVMax= 4.50D-02

 Cycle   4  Pass 1  IDiag  1:
 RMSU=  3.64D-04    CP:  9.43D-01  1.04D+00  9.41D-01
 E= -307.674247245373     Delta-E=       -0.009128376264 Rises=F Damp=F
 DIIS: error= 3.35D-03 at cycle   4 NSaved=   4.
 NSaved= 4 IEnMin= 4 EnMin= -307.674247245373     IErMin= 4 ErrMin= 3.35D-03
 ErrMax= 3.35D-03  0.00D+00 EMaxC= 1.00D-01 BMatC= 2.86D-03 BMatP= 1.57D-02
 IDIUse=3 WtCom= 9.67D-01 WtEn= 3.35D-02
 Coeff-Com: -0.292D-01 0.814D-01 0.331D+00 0.617D+00
 Coeff-En:   0.000D+00 0.000D+00 0.151D+00 0.849D+00
 Coeff:     -0.282D-01 0.787D-01 0.325D+00 0.624D+00
 Gap=     0.367 Goal=   None    Shift=    0.000
 RMSDP=1.36D-04 MaxDP=5.31D-03 DE=-9.13D-03 OVMax= 1.17D-02

 Cycle   5  Pass 1  IDiag  1:
 RMSU=  6.53D-05    CP:  9.40D-01  1.02D+00  1.00D+00  7.41D-01
 E= -307.676314094250     Delta-E=       -0.002066848877 Rises=F Damp=F
 DIIS: error= 4.16D-04 at cycle   5 NSaved=   5.
 NSaved= 5 IEnMin= 5 EnMin= -307.676314094250     IErMin= 5 ErrMin= 4.16D-04
 ErrMax= 4.16D-04  0.00D+00 EMaxC= 1.00D-01 BMatC= 5.71D-05 BMatP= 2.86D-03
 IDIUse=3 WtCom= 9.96D-01 WtEn= 4.16D-03
 Coeff-Com: -0.703D-02 0.132D-01 0.103D+00 0.241D+00 0.650D+00
 Coeff-En:   0.000D+00 0.000D+00 0.000D+00 0.000D+00 0.100D+01
 Coeff:     -0.700D-02 0.131D-01 0.102D+00 0.240D+00 0.651D+00
 Gap=     0.367 Goal=   None    Shift=    0.000
 RMSDP=2.30D-05 MaxDP=1.12D-03 DE=-2.07D-03 OVMax= 2.30D-03

 Cycle   6  Pass 1  IDiag  1:
 RMSU=  1.96D-05    CP:  9.39D-01  1.02D+00  1.01D+00  7.62D-01  9.38D-01
 E= -307.676353115756     Delta-E=       -0.000039021506 Rises=F Damp=F
 DIIS: error= 1.28D-04 at cycle   6 NSaved=   6.
 NSaved= 6 IEnMin= 6 EnMin= -307.676353115756     IErMin= 6 ErrMin= 1.28D-04
 ErrMax= 1.28D-04  0.00D+00 EMaxC= 1.00D-01 BMatC= 7.45D-06 BMatP= 5.71D-05
 IDIUse=3 WtCom= 9.99D-01 WtEn= 1.28D-03
 Coeff-Com: -0.185D-03-0.233D-02 0.150D-01 0.468D-01 0.296D+00 0.645D+00
 Coeff-En:   0.000D+00 0.000D+00 0.000D+00 0.000D+00 0.000D+00 0.100D+01
 Coeff:     -0.185D-03-0.233D-02 0.150D-01 0.467D-01 0.296D+00 0.645D+00
 Gap=     0.367 Goal=   None    Shift=    0.000
 RMSDP=9.01D-06 MaxDP=4.00D-04 DE=-3.90D-05 OVMax= 4.91D-04

 Cycle   7  Pass 1  IDiag  1:
 RMSU=  6.38D-06    CP:  9.39D-01  1.01D+00  1.01D+00  7.68D-01  9.92D-01
                    CP:  9.86D-01
 E= -307.676358818181     Delta-E=       -0.000005702425 Rises=F Damp=F
 DIIS: error= 4.10D-05 at cycle   7 NSaved=   7.
 NSaved= 7 IEnMin= 7 EnMin= -307.676358818181     IErMin= 7 ErrMin= 4.10D-05
 ErrMax= 4.10D-05  0.00D+00 EMaxC= 1.00D-01 BMatC= 4.06D-07 BMatP= 7.45D-06
 IDIUse=1 WtCom= 1.00D+00 WtEn= 0.00D+00
 Coeff-Com:  0.113D-02-0.266D-02-0.101D-01-0.241D-01-0.133D-01 0.127D+00
 Coeff-Com:  0.922D+00
 Coeff:      0.113D-02-0.266D-02-0.101D-01-0.241D-01-0.133D-01 0.127D+00
 Coeff:      0.922D+00
 Gap=     0.367 Goal=   None    Shift=    0.000
 RMSDP=4.27D-06 MaxDP=1.27D-04 DE=-5.70D-06 OVMax= 3.89D-04

 Cycle   8  Pass 1  IDiag  1:
 RMSU=  2.42D-06    CP:  9.39D-01  1.01D+00  1.01D+00  7.68D-01  1.02D+00
                    CP:  1.07D+00  1.09D+00
 E= -307.676359347551     Delta-E=       -0.000000529370 Rises=F Damp=F
 DIIS: error= 1.29D-05 at cycle   8 NSaved=   8.
 NSaved= 8 IEnMin= 8 EnMin= -307.676359347551     IErMin= 8 ErrMin= 1.29D-05
 ErrMax= 1.29D-05  0.00D+00 EMaxC= 1.00D-01 BMatC= 7.18D-08 BMatP= 4.06D-07
 IDIUse=1 WtCom= 1.00D+00 WtEn= 0.00D+00
 Coeff-Com:  0.436D-03-0.803D-03-0.445D-02-0.131D-01-0.299D-01-0.176D-01
 Coeff-Com:  0.332D+00 0.734D+00
 Coeff:      0.436D-03-0.803D-03-0.445D-02-0.131D-01-0.299D-01-0.176D-01
 Coeff:      0.332D+00 0.734D+00
 Gap=     0.367 Goal=   None    Shift=    0.000
 RMSDP=1.10D-06 MaxDP=3.21D-05 DE=-5.29D-07 OVMax= 9.13D-05

 Cycle   9  Pass 1  IDiag  1:
 RMSU=  7.94D-07    CP:  9.39D-01  1.01D+00  1.01D+00  7.67D-01  1.03D+00
                    CP:  1.08D+00  1.16D+00  1.04D+00
 E= -307.676359425683     Delta-E=       -0.000000078132 Rises=F Damp=F
 DIIS: error= 4.56D-06 at cycle   9 NSaved=   9.
 NSaved= 9 IEnMin= 9 EnMin= -307.676359425683     IErMin= 9 ErrMin= 4.56D-06
 ErrMax= 4.56D-06  0.00D+00 EMaxC= 1.00D-01 BMatC= 3.66D-09 BMatP= 7.18D-08
 IDIUse=1 WtCom= 1.00D+00 WtEn= 0.00D+00
 Coeff-Com: -0.766D-04 0.189D-03 0.878D-03 0.119D-02-0.147D-02-0.154D-01
 Coeff-Com: -0.664D-01 0.668D-01 0.101D+01
 Coeff:     -0.766D-04 0.189D-03 0.878D-03 0.119D-02-0.147D-02-0.154D-01
 Coeff:     -0.664D-01 0.668D-01 0.101D+01
 Gap=     0.367 Goal=   None    Shift=    0.000
 RMSDP=4.11D-07 MaxDP=1.61D-05 DE=-7.81D-08 OVMax= 4.17D-05

 Cycle  10  Pass 1  IDiag  1:
 RMSU=  2.09D-07    CP:  9.39D-01  1.01D+00  1.01D+00  7.66D-01  1.03D+00
                    CP:  1.07D+00  1.17D+00  1.13D+00  1.17D+00
 E= -307.676359431255     Delta-E=       -0.000000005572 Rises=F Damp=F
 DIIS: error= 5.83D-07 at cycle  10 NSaved=  10.
 NSaved=10 IEnMin=10 EnMin= -307.676359431255     IErMin=10 ErrMin= 5.83D-07
 ErrMax= 5.83D-07  0.00D+00 EMaxC= 1.00D-01 BMatC= 1.38D-10 BMatP= 3.66D-09
 IDIUse=1 WtCom= 1.00D+00 WtEn= 0.00D+00
 Coeff-Com: -0.277D-04 0.598D-04 0.341D-03 0.765D-03 0.101D-02-0.948D-03
 Coeff-Com: -0.253D-01-0.295D-01 0.148D+00 0.906D+00
 Coeff:     -0.277D-04 0.598D-04 0.341D-03 0.765D-03 0.101D-02-0.948D-03
 Coeff:     -0.253D-01-0.295D-01 0.148D+00 0.906D+00
 Gap=     0.367 Goal=   None    Shift=    0.000
 RMSDP=8.43D-08 MaxDP=3.97D-06 DE=-5.57D-09 OVMax= 7.58D-06

 Cycle  11  Pass 1  IDiag  1:
 RMSU=  4.02D-08    CP:  9.39D-01  1.01D+00  1.01D+00  7.66D-01  1.03D+00
                    CP:  1.07D+00  1.17D+00  1.15D+00  1.22D+00  1.07D+00
 E= -307.676359431440     Delta-E=       -0.000000000184 Rises=F Damp=F
 DIIS: error= 2.56D-07 at cycle  11 NSaved=  11.
 NSaved=11 IEnMin=11 EnMin= -307.676359431440     IErMin=11 ErrMin= 2.56D-07
 ErrMax= 2.56D-07  0.00D+00 EMaxC= 1.00D-01 BMatC= 2.23D-11 BMatP= 1.38D-10
 IDIUse=1 WtCom= 1.00D+00 WtEn= 0.00D+00
 Coeff-Com: -0.381D-05 0.638D-05 0.696D-04 0.188D-03 0.442D-03 0.609D-03
 Coeff-Com: -0.439D-02-0.145D-01-0.162D-01 0.291D+00 0.742D+00
 Coeff:     -0.381D-05 0.638D-05 0.696D-04 0.188D-03 0.442D-03 0.609D-03
 Coeff:     -0.439D-02-0.145D-01-0.162D-01 0.291D+00 0.742D+00
 Gap=     0.367 Goal=   None    Shift=    0.000
 RMSDP=2.02D-08 MaxDP=9.58D-07 DE=-1.84D-10 OVMax= 1.65D-06

 Cycle  12  Pass 1  IDiag  1:
 RMSU=  1.44D-08    CP:  9.39D-01  1.01D+00  1.01D+00  7.66D-01  1.03D+00
                    CP:  1.07D+00  1.17D+00  1.15D+00  1.23D+00  1.13D+00
                    CP:  1.01D+00
 E= -307.676359431459     Delta-E=       -0.000000000019 Rises=F Damp=F
 DIIS: error= 7.65D-08 at cycle  12 NSaved=  12.
 NSaved=12 IEnMin=12 EnMin= -307.676359431459     IErMin=12 ErrMin= 7.65D-08
 ErrMax= 7.65D-08  0.00D+00 EMaxC= 1.00D-01 BMatC= 1.92D-12 BMatP= 2.23D-11
 IDIUse=1 WtCom= 1.00D+00 WtEn= 0.00D+00
 Coeff-Com:  0.197D-05-0.427D-05-0.132D-04-0.283D-04 0.222D-04 0.207D-03
 Coeff-Com:  0.137D-02-0.965D-03-0.201D-01-0.164D-01 0.221D+00 0.815D+00
 Coeff:      0.197D-05-0.427D-05-0.132D-04-0.283D-04 0.222D-04 0.207D-03
 Coeff:      0.137D-02-0.965D-03-0.201D-01-0.164D-01 0.221D+00 0.815D+00
 Gap=     0.367 Goal=   None    Shift=    0.000
 RMSDP=6.15D-09 MaxDP=2.25D-07 DE=-1.91D-11 OVMax= 3.72D-07

 SCF Done:  E(RM062X) =  -307.676359431     A.U. after   12 cycles
            NFock= 12  Conv=0.61D-08     -V/T= 2.0036
 KE= 3.065735887955D+02 PE=-1.212779270351D+03 EE= 3.520159429690D+02
 Leave Link  502 at Fri Mar 29 16:03:50 2019, MaxMem=   671088640 cpu:             915.2 elap:              45.8
 (Enter /shared/centos7/gaussian/g16/l801.exe)
 DoSCS=F DFT=T ScalE2(SS,OS)=  1.000000  1.000000
 Range of M.O.s used for correlation:     1   276
 NBasis=   276 NAE=    24 NBE=    24 NFC=     0 NFV=     0
 NROrb=    276 NOA=    24 NOB=    24 NVA=   252 NVB=   252

 **** Warning!!: The largest alpha MO coefficient is  0.57774287D+02

 Leave Link  801 at Fri Mar 29 16:03:50 2019, MaxMem=   671088640 cpu:               0.4 elap:               0.0
 (Enter /shared/centos7/gaussian/g16/l1101.exe)
 Using compressed storage, NAtomX=    14.
 Will process     15 centers per pass.
 Leave Link 1101 at Fri Mar 29 16:03:51 2019, MaxMem=   671088640 cpu:              10.5 elap:               0.6
 (Enter /shared/centos7/gaussian/g16/l1102.exe)
 Symmetrizing basis deriv contribution to polar:
 IMax=3 JMax=2 DiffMx= 0.00D+00
 Leave Link 1102 at Fri Mar 29 16:03:51 2019, MaxMem=   671088640 cpu:               0.8 elap:               0.1
 (Enter /shared/centos7/gaussian/g16/l1110.exe)
 Forming Gx(P) for the SCF density, NAtomX=    14.
 Integral derivatives from FoFJK, PRISM(SPDF).
 Do as many integral derivatives as possible in FoFJK.
 G2DrvN: MDV=     671087496.
 G2DrvN: will do    15 centers at a time, making    1 passes.
 Calling FoFCou, ICntrl=  3107 FMM=F I1Cent=   0 AccDes= 0.00D+00.
 FoFJK:  IHMeth= 1 ICntrl=    3107 DoSepK=F KAlg= 0 I1Cent=           0 FoldK=F
 IRaf=         0 NMat=       1 IRICut=       1 DoRegI=T DoRafI=F ISym2E= 0 IDoP0=0 IntGTp=1.
 FoFCou: FMM=F IPFlag=           0 FMFlag=      100000 FMFlg1=           0
         NFxFlg=           0 DoJE=F BraDBF=F KetDBF=F FulRan=T
         wScrn=  0.000000 ICntrl=      3107 IOpCl=  0 I1Cent=           0 NGrid=           0
         NMat0=    1 NMatS0=      1 NMatT0=    0 NMatD0=    1 NMtDS0=    0 NMtDT0=    0
 Symmetry not used in FoFCou.
 End of G2Drv F.D. properties file   721 does not exist.
 End of G2Drv F.D. properties file   722 does not exist.
 End of G2Drv F.D. properties file   788 does not exist.
 Leave Link 1110 at Fri Mar 29 16:05:20 2019, MaxMem=   671088640 cpu:            1791.3 elap:              89.6
 (Enter /shared/centos7/gaussian/g16/l1002.exe)
 Minotr:  Closed shell wavefunction.
          IDoAtm=11111111111111
          Direct CPHF calculation.
          Differentiating once with respect to nuclear coordinates.
          Requested convergence is 1.0D-08 RMS, and 1.0D-07 maximum.
          Secondary convergence is 1.0D-12 RMS, and 1.0D-12 maximum.
          NewPWx=T KeepS1=F KeepF1=F KeepIn=T MapXYZ=F SortEE=F KeepMc=T.
         4271 words used for storage of precomputed grid.
 Two-electron integrals replicated using symmetry.
          MDV=     671088640 using IRadAn=       1.
          Solving linear equations simultaneously, MaxMat=     380.
 FoF2E skips out because all densities are zero.
 CalDSu exits because no D1Ps are significant.
 FoFJK:  IHMeth= 1 ICntrl=       0 DoSepK=F KAlg= 0 I1Cent=           0 FoldK=F
 IRaf= 940000000 NMat=      42 IRICut=     105 DoRegI=T DoRafI=T ISym2E= 2 IDoP0=3 IntGTp=3.
 FoFCou: FMM=F IPFlag=           0 FMFlag=      100000 FMFlg1=           0
         NFxFlg=           0 DoJE=F BraDBF=F KetDBF=F FulRan=T
         wScrn=  0.000000 ICntrl=         0 IOpCl=  0 I1Cent=           0 NGrid=           0
         NMat0=   42 NMatS0=     42 NMatT0=    0 NMatD0=   42 NMtDS0=    0 NMtDT0=    0
 Integrals replicated using symmetry in FoFCou.
 Raff kept on since  92.59% of shell-pairs survive, threshold=   0.20 IRatSp=93.
          There are    45 degrees of freedom in the 1st order CPHF.  IDoFFX=6 NUNeed=     0.
     39 vectors produced by pass  0 Test12= 1.34D-14 2.22D-09 XBig12= 7.91D-02 6.87D-02.
 AX will form    39 AO Fock derivatives at one time.
     39 vectors produced by pass  1 Test12= 1.34D-14 2.22D-09 XBig12= 8.13D-03 3.44D-02.
     39 vectors produced by pass  2 Test12= 1.34D-14 2.22D-09 XBig12= 2.21D-04 2.77D-03.
     39 vectors produced by pass  3 Test12= 1.34D-14 2.22D-09 XBig12= 1.85D-06 2.72D-04.
     39 vectors produced by pass  4 Test12= 1.34D-14 2.22D-09 XBig12= 1.63D-08 1.68D-05.
     39 vectors produced by pass  5 Test12= 1.34D-14 2.22D-09 XBig12= 9.28D-11 1.16D-06.
     23 vectors produced by pass  6 Test12= 1.34D-14 2.22D-09 XBig12= 3.50D-13 7.98D-08.
      4 vectors produced by pass  7 Test12= 1.34D-14 2.22D-09 XBig12= 1.46D-15 5.22D-09.
 InvSVY:  IOpt=1 It=  1 EMax= 2.44D-15
 Solved reduced A of dimension   261 with    39 vectors.
 End of Minotr F.D. properties file   721 does not exist.
 End of Minotr F.D. properties file   722 does not exist.
 End of Minotr F.D. properties file   788 does not exist.
 Leave Link 1002 at Fri Mar 29 16:07:26 2019, MaxMem=   671088640 cpu:            2504.4 elap:             125.3
 (Enter /shared/centos7/gaussian/g16/l601.exe)
 Copying SCF densities to generalized density rwf, IOpCl= 0 IROHF=0.

 **********************************************************************

            Population analysis using the SCF density.

 **********************************************************************

 Orbital symmetries:
       Occupied  (A) (A) (A) (A) (A) (A) (A) (A) (A) (A) (A) (A)
                 (A) (A) (A) (A) (A) (A) (A) (A) (A) (A) (A) (A)
       Virtual   (A) (A) (A) (A) (A) (A) (A) (A) (A) (A) (A) (A)
                 (A) (A) (A) (A) (A) (A) (A) (A) (A) (A) (A) (A)
                 (A) (A) (A) (A) (A) (A) (A) (A) (A) (A) (A) (A)
                 (A) (A) (A) (A) (A) (A) (A) (A) (A) (A) (A) (A)
                 (A) (A) (A) (A) (A) (A) (A) (A) (A) (A) (A) (A)
                 (A) (A) (A) (A) (A) (A) (A) (A) (A) (A) (A) (A)
                 (A) (A) (A) (A) (A) (A) (A) (A) (A) (A) (A) (A)
                 (A) (A) (A) (A) (A) (A) (A) (A) (A) (A) (A) (A)
                 (A) (A) (A) (A) (A) (A) (A) (A) (A) (A) (A) (A)
                 (A) (A) (A) (A) (A) (A) (A) (A) (A) (A) (A) (A)
                 (A) (A) (A) (A) (A) (A) (A) (A) (A) (A) (A) (A)
                 (A) (A) (A) (A) (A) (A) (A) (A) (A) (A) (A) (A)
                 (A) (A) (A) (A) (A) (A) (A) (A) (A) (A) (A) (A)
                 (A) (A) (A) (A) (A) (A) (A) (A) (A) (A) (A) (A)
                 (A) (A) (A) (A) (A) (A) (A) (A) (A) (A) (A) (A)
                 (A) (A) (A) (A) (A) (A) (A) (A) (A) (A) (A) (A)
                 (A) (A) (A) (A) (A) (A) (A) (A) (A) (A) (A) (A)
                 (A) (A) (A) (A) (A) (A) (A) (A) (A) (A) (A) (A)
                 (A) (A) (A) (A) (A) (A) (A) (A) (A) (A) (A) (A)
                 (A) (A) (A) (A) (A) (A) (A) (A) (A) (A) (A) (A)
                 (A) (A) (A) (A) (A) (A) (A) (A) (A) (A) (A) (A)
 The electronic state is 1-A.
 Alpha  occ. eigenvalues --  -19.66864 -19.61279 -10.66806 -10.58922 -10.55063
 Alpha  occ. eigenvalues --  -10.52800  -1.23856  -1.14353  -0.89349  -0.82387
 Alpha  occ. eigenvalues --   -0.73252  -0.64607  -0.58973  -0.58005  -0.56227
 Alpha  occ. eigenvalues --   -0.52482  -0.50589  -0.46018  -0.44640  -0.44048
 Alpha  occ. eigenvalues --   -0.42653  -0.41442  -0.37843  -0.35594
 Alpha virt. eigenvalues --    0.01131   0.02431   0.03677   0.03960   0.05005
 Alpha virt. eigenvalues --    0.05090   0.05753   0.06577   0.08384   0.08734
 Alpha virt. eigenvalues --    0.09016   0.09734   0.10542   0.12387   0.14286
 Alpha virt. eigenvalues --    0.15262   0.17996   0.19119   0.20012   0.20068
 Alpha virt. eigenvalues --    0.21602   0.22426   0.23004   0.23324   0.24349
 Alpha virt. eigenvalues --    0.26440   0.27718   0.28357   0.28444   0.29376
 Alpha virt. eigenvalues --    0.30486   0.32095   0.33755   0.34550   0.36719
 Alpha virt. eigenvalues --    0.38665   0.39658   0.41468   0.44371   0.47140
 Alpha virt. eigenvalues --    0.47821   0.49382   0.50520   0.51628   0.53836
 Alpha virt. eigenvalues --    0.54465   0.55500   0.56197   0.56570   0.57699
 Alpha virt. eigenvalues --    0.61099   0.61349   0.62389   0.63663   0.66426
 Alpha virt. eigenvalues --    0.67341   0.68335   0.70968   0.71670   0.75389
 Alpha virt. eigenvalues --    0.76859   0.78700   0.80793   0.84058   0.84607
 Alpha virt. eigenvalues --    0.87199   0.89469   0.90646   0.92160   0.92744
 Alpha virt. eigenvalues --    0.98539   1.01188   1.02647   1.05900   1.06009
 Alpha virt. eigenvalues --    1.09543   1.10682   1.12093   1.12929   1.13628
 Alpha virt. eigenvalues --    1.16473   1.17512   1.17626   1.18613   1.21358
 Alpha virt. eigenvalues --    1.22797   1.23642   1.24525   1.24526   1.24705
 Alpha virt. eigenvalues --    1.28861   1.30112   1.32922   1.34374   1.35143
 Alpha virt. eigenvalues --    1.39603   1.41985   1.43102   1.43795   1.45847
 Alpha virt. eigenvalues --    1.46727   1.47133   1.49427   1.53067   1.55160
 Alpha virt. eigenvalues --    1.58088   1.59775   1.60736   1.63247   1.65487
 Alpha virt. eigenvalues --    1.67533   1.70031   1.72868   1.77335   1.83305
 Alpha virt. eigenvalues --    1.85140   1.93470   2.06418   2.09906   2.12304
 Alpha virt. eigenvalues --    2.27991   2.35032   2.39289   2.40186   2.49282
 Alpha virt. eigenvalues --    2.52655   2.58107   2.59919   2.66152   2.67914
 Alpha virt. eigenvalues --    2.74598   2.75487   2.79974   2.81265   2.83996
 Alpha virt. eigenvalues --    2.84068   2.84572   2.94351   2.96122   2.98581
 Alpha virt. eigenvalues --    3.00951   3.02277   3.03394   3.07775   3.10533
 Alpha virt. eigenvalues --    3.11399   3.13086   3.13791   3.15341   3.18304
 Alpha virt. eigenvalues --    3.19895   3.24957   3.26040   3.26850   3.28919
 Alpha virt. eigenvalues --    3.31999   3.34992   3.40342   3.40652   3.43068
 Alpha virt. eigenvalues --    3.45079   3.49525   3.51629   3.51718   3.52308
 Alpha virt. eigenvalues --    3.52966   3.56317   3.57860   3.61177   3.61304
 Alpha virt. eigenvalues --    3.67458   3.67958   3.72392   3.77529   3.82849
 Alpha virt. eigenvalues --    3.83163   3.86961   3.87392   3.91245   3.94899
 Alpha virt. eigenvalues --    3.95484   3.97410   4.00604   4.01696   4.02026
 Alpha virt. eigenvalues --    4.06040   4.12702   4.13914   4.17716   4.18664
 Alpha virt. eigenvalues --    4.26510   4.26859   4.28828   4.30996   4.31017
 Alpha virt. eigenvalues --    4.32104   4.32633   4.34826   4.36443   4.43096
 Alpha virt. eigenvalues --    4.48241   4.49804   4.51361   4.54089   4.55665
 Alpha virt. eigenvalues --    4.60858   4.72684   4.91931   4.93145   5.08308
 Alpha virt. eigenvalues --    5.11823   5.14951   5.20612   5.20814   5.23681
 Alpha virt. eigenvalues --    5.27478   5.37357   5.40972   5.45126   5.50689
 Alpha virt. eigenvalues --    5.53213   5.56706   5.57334   5.58222   5.65217
 Alpha virt. eigenvalues --    5.67244   5.69380   5.74852   5.80629   6.00291
 Alpha virt. eigenvalues --    6.09630   6.38784   6.45962   6.69865   6.83660
 Alpha virt. eigenvalues --    6.96610   7.06543   7.11743   7.17800   7.19469
 Alpha virt. eigenvalues --    7.25786   7.31779   7.55376   7.67683   7.77757
 Alpha virt. eigenvalues --    7.83484  24.34337  24.43852  24.46702  24.86032
 Alpha virt. eigenvalues --   50.17733  50.31651
          Condensed to atoms (all electrons):
               1          2          3          4          5          6
     1  O    8.214803  -0.084625  -0.218002   0.008870   0.151226   0.216932
     2  O   -0.084625   8.213365   0.001397  -0.029710  -0.035571   0.348857
     3  C   -0.218002   0.001397   5.666628   0.094555  -0.061846  -0.133551
     4  C    0.008870  -0.029710   0.094555   5.176204  -0.013362   0.077215
     5  C    0.151226  -0.035571  -0.061846  -0.013362   4.967609  -0.107665
     6  C    0.216932   0.348857  -0.133551   0.077215  -0.107665   5.443027
     7  H    0.002455   0.000622   0.450856  -0.038743   0.001431  -0.048700
     8  H    0.002455   0.000623   0.450857  -0.038743   0.001431  -0.048700
     9  H    0.000084  -0.001578  -0.024636   0.412767  -0.000210  -0.006992
    10  H   -0.000608   0.001223  -0.078179   0.424389   0.000452   0.038413
    11  H    0.000084  -0.001578  -0.024636   0.412767  -0.000210  -0.006992
    12  H   -0.059014   0.003701   0.002346   0.000790   0.419178   0.017895
    13  H   -0.035578  -0.004396  -0.001458  -0.000948   0.431123   0.001857
    14  H   -0.035578  -0.004396  -0.001458  -0.000948   0.431123   0.001857
               7          8          9         10         11         12
     1  O    0.002455   0.002455   0.000084  -0.000608   0.000084  -0.059014
     2  O    0.000622   0.000623  -0.001578   0.001223  -0.001578   0.003701
     3  C    0.450856   0.450857  -0.024636  -0.078179  -0.024636   0.002346
     4  C   -0.038743  -0.038743   0.412767   0.424389   0.412767   0.000790
     5  C    0.001431   0.001431  -0.000210   0.000452  -0.000210   0.419178
     6  C   -0.048700  -0.048700  -0.006992   0.038413  -0.006992   0.017895
     7  H    0.517206  -0.037196   0.005409  -0.003517  -0.006671   0.000009
     8  H   -0.037196   0.517206  -0.006671  -0.003517   0.005409   0.000009
     9  H    0.005409  -0.006671   0.528099  -0.025290  -0.031323  -0.000002
    10  H   -0.003517  -0.003517  -0.025290   0.538139  -0.025290  -0.000000
    11  H   -0.006671   0.005409  -0.031323  -0.025290   0.528099  -0.000002
    12  H    0.000009   0.000009  -0.000002  -0.000000  -0.000002   0.533251
    13  H    0.000137  -0.000094   0.000012  -0.000001  -0.000006  -0.025077
    14  H   -0.000094   0.000137  -0.000006  -0.000001   0.000012  -0.025077
              13         14
     1  O   -0.035578  -0.035578
     2  O   -0.004396  -0.004396
     3  C   -0.001458  -0.001458
     4  C   -0.000948  -0.000948
     5  C    0.431123   0.431123
     6  C    0.001857   0.001857
     7  H    0.000137  -0.000094
     8  H   -0.000094   0.000137
     9  H    0.000012  -0.000006
    10  H   -0.000001  -0.000001
    11  H   -0.000006   0.000012
    12  H   -0.025077  -0.025077
    13  H    0.533186  -0.037521
    14  H   -0.037521   0.533186
 Mulliken charges:
               1
     1  O   -0.163503
     2  O   -0.407934
     3  C   -0.122874
     4  C   -0.485103
     5  C   -0.184709
     6  C    0.206547
     7  H    0.156796
     8  H    0.156796
     9  H    0.150337
    10  H    0.133789
    11  H    0.150337
    12  H    0.131995
    13  H    0.138764
    14  H    0.138764
 Sum of Mulliken charges =  -0.00000
 Mulliken charges with hydrogens summed into heavy atoms:
               1
     1  O   -0.163503
     2  O   -0.407934
     3  C    0.190718
     4  C   -0.050640
     5  C    0.224813
     6  C    0.206547
 APT charges:
               1
     1  O   -0.038120
     2  O   -0.401935
     3  C   -0.607962
     4  C   -1.314564
     5  C   -1.242519
     6  C    0.318047
     7  H    0.381585
     8  H    0.381585
     9  H    0.327564
    10  H    0.579113
    11  H    0.327564
    12  H    0.576269
    13  H    0.356688
    14  H    0.356688
 Sum of APT charges =  -0.00000
 APT charges with hydrogens summed into heavy atoms:
               1
     1  O   -0.038120
     2  O   -0.401935
     3  C    0.155207
     4  C   -0.080324
     5  C    0.047125
     6  C    0.318047
 Electronic spatial extent (au):  <R**2>=            688.1343
 Charge=             -0.0000 electrons
 Dipole moment (field-independent basis, Debye):
    X=              0.3634    Y=             -1.6693    Z=             -0.0000  Tot=              1.7084
 Quadrupole moment (field-independent basis, Debye-Ang):
   XX=            -30.8399   YY=            -41.3455   ZZ=            -35.8976
   XY=              1.4919   XZ=              0.0000   YZ=              0.0000
 Traceless Quadrupole moment (field-independent basis, Debye-Ang):
   XX=              5.1878   YY=             -5.3179   ZZ=              0.1301
   XY=              1.4919   XZ=              0.0000   YZ=              0.0000
 Octapole moment (field-independent basis, Debye-Ang**2):
  XXX=             19.2490  YYY=             -3.9887  ZZZ=             -0.0000  XYY=              0.1619
  XXY=             -0.2952  XXZ=             -0.0000  XZZ=              1.9761  YZZ=              0.8850
  YYZ=              0.0000  XYZ=             -0.0000
 Hexadecapole moment (field-independent basis, Debye-Ang**3):
 XXXX=           -660.1653 YYYY=           -165.1711 ZZZZ=            -54.7744 XXXY=             -2.8549
 XXXZ=              0.0000 YYYX=             -1.1329 YYYZ=             -0.0000 ZZZX=              0.0000
 ZZZY=             -0.0000 XXYY=           -139.3929 XXZZ=           -125.5855 YYZZ=            -33.0505
 XXYZ=             -0.0000 YYXZ=              0.0000 ZZXY=              0.7654
 N-N= 2.465133791555D+02 E-N=-1.212779277656D+03  KE= 3.065735887955D+02
  Exact polarizability:   0.000   0.000   0.000   0.000   0.000   0.000
 Approx polarizability:  63.729  -1.129  68.878   0.000   0.000  55.052
 No NMR shielding tensors so no spin-rotation constants.
 Leave Link  601 at Fri Mar 29 16:07:26 2019, MaxMem=   671088640 cpu:               7.0 elap:               0.4
 (Enter /shared/centos7/gaussian/g16/l701.exe)
 ... and contract with generalized density number  0.
 Compute integral second derivatives.
 Leave Link  701 at Fri Mar 29 16:07:26 2019, MaxMem=   671088640 cpu:              10.1 elap:               0.5
 (Enter /shared/centos7/gaussian/g16/l702.exe)
 L702 exits ... SP integral derivatives will be done elsewhere.
 Leave Link  702 at Fri Mar 29 16:07:27 2019, MaxMem=   671088640 cpu:               0.4 elap:               0.0
 (Enter /shared/centos7/gaussian/g16/l703.exe)
 Integral derivatives from FoFJK, PRISM(SPDF).
 Compute integral second derivatives, UseDBF=F ICtDFT=           0.
 Calling FoFJK, ICntrl=    100147 FMM=F ISym2X=0 I1Cent= 0 IOpClX= 0 NMat=1 NMatS=1 NMatT=0.
 FoFJK:  IHMeth= 1 ICntrl=  100147 DoSepK=F KAlg= 0 I1Cent=           0 FoldK=F
 IRaf=         0 NMat=       1 IRICut=       1 DoRegI=T DoRafI=F ISym2E= 0 IDoP0=0 IntGTp=1.
 FoFCou: FMM=F IPFlag=           0 FMFlag=      100000 FMFlg1=         800
         NFxFlg=           0 DoJE=F BraDBF=F KetDBF=F FulRan=T
         wScrn=  0.000000 ICntrl=    100147 IOpCl=  0 I1Cent=           0 NGrid=           0
         NMat0=    1 NMatS0=      1 NMatT0=    0 NMatD0=    1 NMtDS0=    0 NMtDT0=    0
 Symmetry not used in FoFCou.
 Leave Link  703 at Fri Mar 29 16:09:43 2019, MaxMem=   671088640 cpu:            2722.3 elap:             136.2
 (Enter /shared/centos7/gaussian/g16/l716.exe)
 Dipole        = 1.42991442D-01-6.56757120D-01-3.00369784D-07
 Polarizability= 0.00000000D+00 0.00000000D+00 0.00000000D+00
                 0.00000000D+00 0.00000000D+00 0.00000000D+00
 ***** Axes restored to original set *****
 -------------------------------------------------------------------
 Center     Atomic                   Forces (Hartrees/Bohr)
 Number     Number              X              Y              Z
 -------------------------------------------------------------------
      1        8           0.000000114    0.000000418   -0.000000011
      2        8          -0.000000361    0.000000183    0.000000000
      3        6           0.000000130   -0.000000271    0.000000016
      4        6          -0.000000052   -0.000000635   -0.000000005
      5        6          -0.000000081    0.000000642    0.000000004
      6        6           0.000000055   -0.000000130    0.000000007
      7        1           0.000000347   -0.000000250    0.000000006
      8        1           0.000000344   -0.000000241   -0.000000016
      9        1          -0.000000226   -0.000000595    0.000000012
     10        1           0.000000125   -0.000000825   -0.000000001
     11        1          -0.000000228   -0.000000599   -0.000000011
     12        1           0.000000195    0.000000879    0.000000000
     13        1          -0.000000180    0.000000713   -0.000000015
     14        1          -0.000000182    0.000000711    0.000000014
 -------------------------------------------------------------------
 Cartesian Forces:  Max     0.000000879 RMS     0.000000347
 FormGI is forming the generalized inverse of G from B-inverse, IUseBI=4.
 Leave Link  716 at Fri Mar 29 16:09:43 2019, MaxMem=   671088640 cpu:               0.6 elap:               0.1
 (Enter /shared/centos7/gaussian/g16/l103.exe)

 GradGradGradGradGradGradGradGradGradGradGradGradGradGradGradGradGradGrad
 Berny optimization.
 Red2BG is reusing G-inverse.
 Internal  Forces:  Max     0.000000108 RMS     0.000000024
 Search for a local minimum.
 Step number   1 out of a maximum of   65 on scan point     1 out of    13
 All quantities printed in internal units (Hartrees-Bohrs-Radians)
 RMS Force = .23798D-07 SwitMx=.10000D-02 MixMth= 2
 Mixed Optimization -- En-DIIS/RFO-DIIS
 Second derivative matrix not updated -- analytic derivatives used.
 ITU=  0
     Eigenvalues ---    0.00204   0.00363   0.01772   0.02230   0.03878
     Eigenvalues ---    0.04119   0.04458   0.04487   0.07564   0.08403
     Eigenvalues ---    0.08528   0.10665   0.12382   0.13318   0.14618
     Eigenvalues ---    0.16051   0.18874   0.18883   0.19928   0.22066
     Eigenvalues ---    0.25282   0.26795   0.31767   0.33680   0.34455
     Eigenvalues ---    0.34464   0.34524   0.34557   0.34836   0.35408
     Eigenvalues ---    0.35545   0.36787   0.39488   0.48907   0.92058
     Eigenvalues --- 1000.000001000.000001000.000001000.000001000.00000
     Eigenvalues --- 1000.000001000.000001000.000001000.000001000.00000
     Eigenvalues --- 1000.000001000.000001000.000001000.000001000.00000
     Eigenvalues --- 1000.000001000.000001000.000001000.000001000.00000
 RFO step:  Lambda= 0.00000000D+00 EMin= 2.03957852D-03
 Linear search not attempted -- first point.
 Iteration  1 RMS(Cart)=  0.00000021 RMS(Int)=  0.00000000
 Iteration  1 RMS(Cart)=  0.00000000 RMS(Int)=  0.00000000
 ITry= 1 IFail=0 DXMaxC= 5.48D-07 DCOld= 1.00D+10 DXMaxT= 3.00D-01 DXLimC= 3.00D+00 Rises=F
 Variable       Old X    -DE/DX   Delta X   Delta X   Delta X     New X
                                 (Linear)    (Quad)   (Total)
    R1        2.69330  -0.00000   0.00000  -0.00000  -0.00000   2.69330
    R2        2.53553  -0.00000   0.00000  -0.00000  -0.00000   2.53553
    R3        2.26751   0.00000   0.00000   0.00000   0.00000   2.26751
    R4        2.87041  -0.00000   0.00000  -0.00000  -0.00000   2.87041
    R5        2.84730   0.00000   0.00000   0.00000   0.00000   2.84730
    R6        2.06245  -0.00000   0.00000  -0.00000  -0.00000   2.06245
    R7        2.06245  -0.00000   0.00000  -0.00000  -0.00000   2.06245
    R8        2.05639   0.00000   0.00000   0.00000   0.00000   2.05639
    R9        2.05656  -0.00000   0.00000  -0.00000  -0.00000   2.05656
   R10        2.05639   0.00000   0.00000   0.00000   0.00000   2.05639
   R11        2.04993   0.00000   0.00000   0.00000   0.00000   2.04993
   R12        2.05648   0.00000   0.00000   0.00000   0.00000   2.05648
   R13        2.05648   0.00000   0.00000   0.00000   0.00000   2.05648
    A1        2.01295  -0.00000   0.00000  -0.00000  -0.00000   2.01295
    A2        1.95939   0.00000   0.00000   0.00000   0.00000   1.95939
    A3        1.95185  -0.00000   0.00000   0.00000   0.00000   1.95185
    A4        1.95185   0.00000   0.00000  -0.00000  -0.00000   1.95185
    A5        1.87412  -0.00000   0.00000  -0.00000  -0.00000   1.87412
    A6        1.87412  -0.00000   0.00000  -0.00000  -0.00000   1.87412
    A7        1.84637   0.00000   0.00000   0.00000   0.00000   1.84637
    A8        1.93275   0.00000   0.00000   0.00000   0.00000   1.93275
    A9        1.92922  -0.00000   0.00000  -0.00000  -0.00000   1.92922
   A10        1.93275   0.00000   0.00000   0.00000   0.00000   1.93275
   A11        1.89652   0.00000   0.00000   0.00000   0.00000   1.89652
   A12        1.87464  -0.00000   0.00000  -0.00000  -0.00000   1.87464
   A13        1.89652  -0.00000   0.00000  -0.00000  -0.00000   1.89652
   A14        1.85011   0.00000   0.00000   0.00000   0.00000   1.85011
   A15        1.92635   0.00000   0.00000   0.00000   0.00000   1.92635
   A16        1.92635   0.00000   0.00000   0.00000   0.00000   1.92635
   A17        1.93056  -0.00000   0.00000  -0.00000  -0.00000   1.93056
   A18        1.93056  -0.00000   0.00000  -0.00000  -0.00000   1.93056
   A19        1.89987  -0.00000   0.00000  -0.00000  -0.00000   1.89987
   A20        2.14862  -0.00000   0.00000  -0.00000  -0.00000   2.14862
   A21        1.94408   0.00000   0.00000   0.00000   0.00000   1.94408
   A22        2.19049  -0.00000   0.00000  -0.00000  -0.00000   2.19049
    D1       -3.14159  -0.00000   0.00000  -0.00000  -0.00000  -3.14159
    D2       -1.05044   0.00000   0.00000  -0.00000  -0.00000  -1.05044
    D3        1.05044  -0.00000   0.00000  -0.00000  -0.00000   1.05044
    D4       -0.00000   0.00000   0.00000   0.00000   0.00000  -0.00000
    D5        3.14159   0.00000   0.00000   0.00000   0.00000   3.14159
    D6       -1.03884  -0.00000   0.00000   0.00000   0.00000  -1.03884
    D7        3.14159  -0.00000   0.00000   0.00000   0.00000   3.14159
    D8        1.03884   0.00000   0.00000   0.00000   0.00000   1.03884
    D9        3.13636   0.00000   0.00000   0.00000   0.00000   3.13636
   D10        1.03361   0.00000   0.00000   0.00000   0.00000   1.03361
   D11       -1.06915   0.00000   0.00000   0.00000   0.00000  -1.06915
   D12        1.06915  -0.00000   0.00000   0.00000   0.00000   1.06915
   D13       -1.03361  -0.00000   0.00000   0.00000   0.00000  -1.03361
   D14       -3.13636   0.00000   0.00000   0.00000   0.00000  -3.13636
   D15        3.14159   0.00000   0.00000   0.00000   0.00000   3.14159
   D16       -0.00000   0.00000   0.00000   0.00000  -0.00000  -0.00000
   D17       -0.98936   0.00000   0.00000   0.00000   0.00000  -0.98936
   D18        2.15223   0.00000   0.00000   0.00000   0.00000   2.15223
   D19        0.98936   0.00000   0.00000   0.00000   0.00000   0.98936
   D20       -2.15223   0.00000   0.00000   0.00000   0.00000  -2.15223
         Item               Value     Threshold  Converged?
 Maximum Force            0.000000     0.000450     YES
 RMS     Force            0.000000     0.000300     YES
 Maximum Displacement     0.000001     0.001800     YES
 RMS     Displacement     0.000000     0.001200     YES
 Predicted change in Energy=-4.360703D-14
 Optimization completed.
    -- Stationary point found.
                           ----------------------------
                           !   Optimized Parameters   !
                           ! (Angstroms and Degrees)  !
 --------------------------                            --------------------------
 ! Name  Definition              Value          Derivative Info.                !
 --------------------------------------------------------------------------------
 ! R1    R(1,5)                  1.4252         -DE/DX =    0.0                 !
 ! R2    R(1,6)                  1.3417         -DE/DX =    0.0                 !
 ! R3    R(2,6)                  1.1999         -DE/DX =    0.0                 !
 ! R4    R(3,4)                  1.519          -DE/DX =    0.0                 !
 ! R5    R(3,6)                  1.5067         -DE/DX =    0.0                 !
 ! R6    R(3,7)                  1.0914         -DE/DX =    0.0                 !
 ! R7    R(3,8)                  1.0914         -DE/DX =    0.0                 !
 ! R8    R(4,9)                  1.0882         -DE/DX =    0.0                 !
 ! R9    R(4,10)                 1.0883         -DE/DX =    0.0                 !
 ! R10   R(4,11)                 1.0882         -DE/DX =    0.0                 !
 ! R11   R(5,12)                 1.0848         -DE/DX =    0.0                 !
 ! R12   R(5,13)                 1.0882         -DE/DX =    0.0                 !
 ! R13   R(5,14)                 1.0882         -DE/DX =    0.0                 !
 ! A1    A(5,1,6)              115.3337         -DE/DX =    0.0                 !
 ! A2    A(4,3,6)              112.265          -DE/DX =    0.0                 !
 ! A3    A(4,3,7)              111.8328         -DE/DX =    0.0                 !
 ! A4    A(4,3,8)              111.8328         -DE/DX =    0.0                 !
 ! A5    A(6,3,7)              107.379          -DE/DX =    0.0                 !
 ! A6    A(6,3,8)              107.379          -DE/DX =    0.0                 !
 ! A7    A(7,3,8)              105.7892         -DE/DX =    0.0                 !
 ! A8    A(3,4,9)              110.7385         -DE/DX =    0.0                 !
 ! A9    A(3,4,10)             110.5363         -DE/DX =    0.0                 !
 ! A10   A(3,4,11)             110.7385         -DE/DX =    0.0                 !
 ! A11   A(9,4,10)             108.6625         -DE/DX =    0.0                 !
 ! A12   A(9,4,11)             107.409          -DE/DX =    0.0                 !
 ! A13   A(10,4,11)            108.6625         -DE/DX =    0.0                 !
 ! A14   A(1,5,12)             106.0037         -DE/DX =    0.0                 !
 ! A15   A(1,5,13)             110.3716         -DE/DX =    0.0                 !
 ! A16   A(1,5,14)             110.3716         -DE/DX =    0.0                 !
 ! A17   A(12,5,13)            110.6129         -DE/DX =    0.0                 !
 ! A18   A(12,5,14)            110.6129         -DE/DX =    0.0                 !
 ! A19   A(13,5,14)            108.8545         -DE/DX =    0.0                 !
 ! A20   A(1,6,2)              123.1066         -DE/DX =    0.0                 !
 ! A21   A(1,6,3)              111.3877         -DE/DX =    0.0                 !
 ! A22   A(2,6,3)              125.5057         -DE/DX =    0.0                 !
 ! D1    D(6,1,5,12)          -180.0            -DE/DX =    0.0                 !
 ! D2    D(6,1,5,13)           -60.186          -DE/DX =    0.0                 !
 ! D3    D(6,1,5,14)            60.186          -DE/DX =    0.0                 !
 ! D4    D(5,1,6,2)              0.0            -DE/DX =    0.0                 !
 ! D5    D(5,1,6,3)            180.0            -DE/DX =    0.0                 !
 ! D6    D(6,3,4,9)            -59.521          -DE/DX =    0.0                 !
 ! D7    D(6,3,4,10)           180.0            -DE/DX =    0.0                 !
 ! D8    D(6,3,4,11)            59.521          -DE/DX =    0.0                 !
 ! D9    D(7,3,4,9)            179.7004         -DE/DX =    0.0                 !
 ! D10   D(7,3,4,10)            59.2214         -DE/DX =    0.0                 !
 ! D11   D(7,3,4,11)           -61.2576         -DE/DX =    0.0                 !
 ! D12   D(8,3,4,9)             61.2575         -DE/DX =    0.0                 !
 ! D13   D(8,3,4,10)           -59.2214         -DE/DX =    0.0                 !
 ! D14   D(8,3,4,11)          -179.7004         -DE/DX =    0.0                 !
 ! D15   D(4,3,6,1)            179.9998         -DE/DX =    0.0                 !
 ! D16   D(4,3,6,2)             -0.0002         -DE/DX =    0.0                 !
 ! D17   D(7,3,6,1)            -56.6864         -DE/DX =    0.0                 !
 ! D18   D(7,3,6,2)            123.3136         -DE/DX =    0.0                 !
 ! D19   D(8,3,6,1)             56.6861         -DE/DX =    0.0                 !
 ! D20   D(8,3,6,2)           -123.3139         -DE/DX =    0.0                 !
 --------------------------------------------------------------------------------
 Lowest energy point so far.  Saving SCF results.
 Iteration  1 RMS(Cart)=  0.02174802 RMS(Int)=  0.06049115
 Iteration  2 RMS(Cart)=  0.00938377 RMS(Int)=  0.05727267
 Iteration  3 RMS(Cart)=  0.00403061 RMS(Int)=  0.05615029
 Iteration  4 RMS(Cart)=  0.00173511 RMS(Int)=  0.05571947
 Iteration  5 RMS(Cart)=  0.00074755 RMS(Int)=  0.05554390
 Iteration  6 RMS(Cart)=  0.00032216 RMS(Int)=  0.05547012
 Iteration  7 RMS(Cart)=  0.00013885 RMS(Int)=  0.05543868
 Iteration  8 RMS(Cart)=  0.00005985 RMS(Int)=  0.05542519
 Iteration  9 RMS(Cart)=  0.00002579 RMS(Int)=  0.05541939
 Iteration 10 RMS(Cart)=  0.00001112 RMS(Int)=  0.05541689
 Iteration 11 RMS(Cart)=  0.00000479 RMS(Int)=  0.05541582
 Iteration 12 RMS(Cart)=  0.00000207 RMS(Int)=  0.05541535
 Iteration 13 RMS(Cart)=  0.00000089 RMS(Int)=  0.05541515
 Iteration  1 RMS(Cart)=  0.02173042 RMS(Int)=  0.04085389
 Iteration  2 RMS(Cart)=  0.02173612 RMS(Int)=  0.03798791
 Iteration  3 RMS(Cart)=  0.02173402 RMS(Int)=  0.04291663
 Iteration  4 RMS(Cart)=  0.01245547 RMS(Int)=  0.04849172
 Iteration  5 RMS(Cart)=  0.00711466 RMS(Int)=  0.05229210
 Iteration  6 RMS(Cart)=  0.00406726 RMS(Int)=  0.05462112
 Iteration  7 RMS(Cart)=  0.00232660 RMS(Int)=  0.05599765
 Iteration  8 RMS(Cart)=  0.00133143 RMS(Int)=  0.05679872
 Iteration  9 RMS(Cart)=  0.00076211 RMS(Int)=  0.05726142
 Iteration 10 RMS(Cart)=  0.00043630 RMS(Int)=  0.05752765
 Iteration 11 RMS(Cart)=  0.00024980 RMS(Int)=  0.05768050
 Iteration 12 RMS(Cart)=  0.00014303 RMS(Int)=  0.05776816
 Iteration 13 RMS(Cart)=  0.00008190 RMS(Int)=  0.05781840
 Iteration 14 RMS(Cart)=  0.00004689 RMS(Int)=  0.05784718
 Iteration 15 RMS(Cart)=  0.00002685 RMS(Int)=  0.05786366
 Iteration 16 RMS(Cart)=  0.00001537 RMS(Int)=  0.05787310
 Iteration 17 RMS(Cart)=  0.00000880 RMS(Int)=  0.05787851
 Iteration 18 RMS(Cart)=  0.00000504 RMS(Int)=  0.05788160
 Iteration 19 RMS(Cart)=  0.00000289 RMS(Int)=  0.05788338
 Iteration 20 RMS(Cart)=  0.00000165 RMS(Int)=  0.05788439
 Iteration 21 RMS(Cart)=  0.00000095 RMS(Int)=  0.05788497
 GradGradGradGradGradGradGradGradGradGradGradGradGradGradGradGradGradGrad

 Leave Link  103 at Fri Mar 29 16:09:43 2019, MaxMem=   671088640 cpu:               1.2 elap:               0.1
 (Enter /shared/centos7/gaussian/g16/l202.exe)
                          Input orientation:                          
 ---------------------------------------------------------------------
 Center     Atomic      Atomic             Coordinates (Angstroms)
 Number     Number       Type             X           Y           Z
 ---------------------------------------------------------------------
      1          8           0        1.125078   -0.686605   -0.104158
      2          8           0        0.134454    1.265571    0.276680
      3          6           0       -1.208164   -0.732792    0.125723
      4          6           0       -2.457806    0.112237   -0.061015
      5          6           0        2.377424   -0.008744   -0.042290
      6          6           0        0.041798    0.099381   -0.004359
      7          1           0       -1.273038   -1.370963   -0.757871
      8          1           0       -1.053132   -1.399436    0.976628
      9          1           0       -2.546415    0.851070    0.734176
     10          1           0       -3.347050   -0.515118   -0.053955
     11          1           0       -2.420577    0.652812   -1.005647
     12          1           0        3.137895   -0.777107   -0.136547
     13          1           0        2.458359    0.712696   -0.853823
     14          1           0        2.478059    0.516060    0.906463
 ---------------------------------------------------------------------
                    Distance matrix (angstroms):
                    1          2          3          4          5
     1  O    0.000000
     2  O    2.222019   0.000000
     3  C    2.344993   2.412232   0.000000
     4  C    3.671112   2.857276   1.520049   0.000000
     5  C    1.425375   2.599334   3.661818   4.836779   0.000000
     6  C    1.342098   1.203150   1.507262   2.500279   2.338434
     7  H    2.578109   3.162695   1.091883   2.022168   3.961511
     8  H    2.533935   3.000426   1.092012   2.309755   3.839392
     9  H    4.067813   2.751031   2.160960   1.089062   5.058297
    10  H    4.475696   3.924416   2.157429   1.088291   5.746838
    11  H    3.895945   2.923700   2.160982   1.089008   4.938272
    12  H    2.015111   3.655674   4.354190   5.666437   1.085165
    13  H    2.073084   2.642772   4.061075   5.015752   1.088859
    14  H    2.073238   2.539859   3.969562   5.045974   1.088889
                    6          7          8          9         10
     6  C    0.000000
     7  H    2.111512   0.000000
     8  H    2.099443   1.748615   0.000000
     9  H    2.794516   2.963970   2.711725   0.000000
    10  H    3.444468   2.351487   2.665742   1.768795   0.000000
    11  H    2.715172   2.339637   3.164024   1.755599   1.768651
    12  H    3.220484   4.493889   4.380771   5.976663   6.490760
    13  H    2.633915   4.274829   4.488009   5.252490   5.987494
    14  H    2.634120   4.516812   4.017880   5.038576   5.993131
                   11         12         13         14
    11  H    0.000000
    12  H    5.804879   0.000000
    13  H    4.881665   1.787672   0.000000
    14  H    5.260372   1.787606   1.771345   0.000000
 Stoichiometry    C4H8O2
 Framework group  C1[X(C4H8O2)]
 Deg. of freedom    36
 Full point group                 C1      NOp   1
 RotChk:  IX=2 Diff= 1.59D-01
 Largest Abelian subgroup         C1      NOp   1
 Largest concise Abelian subgroup C1      NOp   1
                         Standard orientation:                         
 ---------------------------------------------------------------------
 Center     Atomic      Atomic             Coordinates (Angstroms)
 Number     Number       Type             X           Y           Z
 ---------------------------------------------------------------------
      1          8           0        1.122085   -0.703850   -0.045445
      2          8           0        0.138050    1.282516    0.107505
      3          6           0       -1.212768   -0.714978    0.172117
      4          6           0       -2.457283    0.108627   -0.116687
      5          6           0        2.377119   -0.028167   -0.051288
      6          6           0        0.041822    0.092546   -0.041765
      7          1           0       -1.274927   -1.447875   -0.634856
      8          1           0       -1.066258   -1.282680    1.093387
      9          1           0       -2.547573    0.932240    0.590111
     10          1           0       -3.349435   -0.510546   -0.045513
     11          1           0       -2.411520    0.539812   -1.115649
     12          1           0        3.134629   -0.805184   -0.053653
     13          1           0        2.466569    0.597486   -0.937950
     14          1           0        2.474099    0.599241    0.833378
 ---------------------------------------------------------------------
 Rotational constants (GHZ):           9.5793182           2.1726483           1.8431721
 Leave Link  202 at Fri Mar 29 16:09:43 2019, MaxMem=   671088640 cpu:               0.3 elap:               0.0
 (Enter /shared/centos7/gaussian/g16/l301.exe)
 Standard basis: 6-311+G(2df,2p) (5D, 7F)
 Ernie: Thresh=  0.10000D-02 Tol=  0.10000D-05 Strict=F.
 There are   306 symmetry adapted cartesian basis functions of A   symmetry.
 There are   276 symmetry adapted basis functions of A   symmetry.
   276 basis functions,   400 primitive gaussians,   306 cartesian basis functions
    24 alpha electrons       24 beta electrons
       nuclear repulsion energy       246.7006932797 Hartrees.
 IExCor= 4336 DFT=T Ex+Corr=M062X ExCW=0 ScaHFX=  0.540000
 ScaDFX=  1.000000  1.000000  1.000000  1.000000 ScalE2=  1.000000  1.000000
 IRadAn=      5 IRanWt=     -1 IRanGd=            0 ICorTp=0 IEmpDi=  4
 NAtoms=   14 NActive=   14 NUniq=   14 SFac= 1.00D+00 NAtFMM=   60 NAOKFM=F Big=F
 Integral buffers will be    131072 words long.
 Raffenetti 2 integral format.
 Two-electron integral symmetry is turned on.
 Leave Link  301 at Fri Mar 29 16:09:43 2019, MaxMem=   671088640 cpu:               1.3 elap:               0.1
 (Enter /shared/centos7/gaussian/g16/l302.exe)
 NPDir=0 NMtPBC=     1 NCelOv=     1 NCel=       1 NClECP=     1 NCelD=      1
         NCelK=      1 NCelE2=     1 NClLst=     1 CellRange=     0.0.
 One-electron integrals computed using PRISM.
 One-electron integral symmetry used in STVInt
 NBasis=   276 RedAO= T EigKep=  3.51D-05  NBF=   276
 NBsUse=   276 1.00D-06 EigRej= -1.00D+00 NBFU=   276
 Precomputing XC quadrature grid using
 IXCGrd= 4 IRadAn=           5 IRanWt=          -1 IRanGd=           0 AccXCQ= 0.00D+00.
 Generated NRdTot=       0 NPtTot=           0 NUsed=           0 NTot=          32
 NSgBfM=   306   306   306   306   306 MxSgAt=    14 MxSgA2=    14.
 Leave Link  302 at Fri Mar 29 16:09:44 2019, MaxMem=   671088640 cpu:               9.4 elap:               0.5
 (Enter /shared/centos7/gaussian/g16/l303.exe)
 DipDrv:  MaxL=1.
 Leave Link  303 at Fri Mar 29 16:09:44 2019, MaxMem=   671088640 cpu:               0.8 elap:               0.1
 (Enter /shared/centos7/gaussian/g16/l401.exe)
 Initial guess from the checkpoint file:  "/scratch/underkoffler.c/gaussian_scratch/Gau-5431.chk"
 B after Tr=    -0.000000   -0.000000    0.000000
         Rot=    0.999856    0.016651   -0.000630    0.003074 Ang=   1.94 deg.
 Guess basis will be translated and rotated to current coordinates.
 JPrj=2 DoOrth=T DoCkMO=T.
 Generating alternative initial guess.
 ExpMin= 4.38D-02 ExpMax= 8.59D+03 ExpMxC= 1.30D+03 IAcc=2 IRadAn=         4 AccDes= 0.00D+00
 Harris functional with IExCor= 1009 and IRadAn=       4 diagonalized for initial guess.
 HarFok:  IExCor= 1009 AccDes= 0.00D+00 IRadAn=         4 IDoV= 1 UseB2=F ITyADJ=14
 ICtDFT=  3500011 ScaDFX=  1.000000  1.000000  1.000000  1.000000
 FoFCou: FMM=F IPFlag=           0 FMFlag=      100000 FMFlg1=           0
         NFxFlg=           0 DoJE=T BraDBF=F KetDBF=T FulRan=T
         wScrn=  0.000000 ICntrl=       500 IOpCl=  0 I1Cent=   200000004 NGrid=           0
         NMat0=    1 NMatS0=      1 NMatT0=    0 NMatD0=    1 NMtDS0=    0 NMtDT0=    0
 Petite list used in FoFCou.
 Harris En= -307.562509386775    
 Leave Link  401 at Fri Mar 29 16:09:45 2019, MaxMem=   671088640 cpu:              22.0 elap:               1.1
 (Enter /shared/centos7/gaussian/g16/l502.exe)
 Integral symmetry usage will be decided dynamically.
 Closed shell SCF:
 Using DIIS extrapolation, IDIIS=  1040.
 NGot=   671088640 LenX=   670892442 LenY=   670798365
 Requested convergence on RMS density matrix=1.00D-08 within 128 cycles.
 Requested convergence on MAX density matrix=1.00D-06.
 Requested convergence on             energy=1.00D-06.
 No special actions if energy rises.
 Fock matrices will be formed incrementally for  20 cycles.

 Cycle   1  Pass 1  IDiag  1:
 FoFJK:  IHMeth= 1 ICntrl=       0 DoSepK=F KAlg= 0 I1Cent=           0 FoldK=F
 IRaf= 960000000 NMat=       1 IRICut=       1 DoRegI=T DoRafI=F ISym2E= 0 IDoP0=0 IntGTp=1.
 FoFCou: FMM=F IPFlag=           0 FMFlag=      100000 FMFlg1=           0
         NFxFlg=           0 DoJE=F BraDBF=F KetDBF=F FulRan=T
         wScrn=  0.000000 ICntrl=         0 IOpCl=  0 I1Cent=           0 NGrid=           0
         NMat0=    1 NMatS0=      1 NMatT0=    0 NMatD0=    1 NMtDS0=    0 NMtDT0=    0
 Symmetry not used in FoFCou.
 E= -307.627361616302    
 DIIS: error= 7.45D-03 at cycle   1 NSaved=   1.
 NSaved= 1 IEnMin= 1 EnMin= -307.627361616302     IErMin= 1 ErrMin= 7.45D-03
 ErrMax= 7.45D-03  0.00D+00 EMaxC= 1.00D-01 BMatC= 2.65D-02 BMatP= 2.65D-02
 IDIUse=3 WtCom= 9.25D-01 WtEn= 7.45D-02
 Coeff-Com:  0.100D+01
 Coeff-En:   0.100D+01
 Coeff:      0.100D+01
 Gap=     0.604 Goal=   None    Shift=    0.000
 GapD=    0.604 DampG=2.000 DampE=1.000 DampFc=2.0000 IDamp=-1.
 RMSDP=1.32D-03 MaxDP=7.33D-02              OVMax= 4.41D-02

 Cycle   2  Pass 1  IDiag  1:
 RMSU=  1.30D-03    CP:  9.78D-01
 E= -307.662976990295     Delta-E=       -0.035615373993 Rises=F Damp=F
 DIIS: error= 1.14D-03 at cycle   2 NSaved=   2.
 NSaved= 2 IEnMin= 2 EnMin= -307.662976990295     IErMin= 2 ErrMin= 1.14D-03
 ErrMax= 1.14D-03  0.00D+00 EMaxC= 1.00D-01 BMatC= 9.28D-04 BMatP= 2.65D-02
 IDIUse=3 WtCom= 9.89D-01 WtEn= 1.14D-02
 Coeff-Com: -0.120D+00 0.112D+01
 Coeff-En:   0.000D+00 0.100D+01
 Coeff:     -0.119D+00 0.112D+01
 Gap=     0.366 Goal=   None    Shift=    0.000
 RMSDP=2.01D-04 MaxDP=7.23D-03 DE=-3.56D-02 OVMax= 1.26D-02

 Cycle   3  Pass 1  IDiag  1:
 RMSU=  1.41D-04    CP:  9.74D-01  1.11D+00
 E= -307.664569824688     Delta-E=       -0.001592834393 Rises=F Damp=F
 DIIS: error= 7.92D-04 at cycle   3 NSaved=   3.
 NSaved= 3 IEnMin= 3 EnMin= -307.664569824688     IErMin= 3 ErrMin= 7.92D-04
 ErrMax= 7.92D-04  0.00D+00 EMaxC= 1.00D-01 BMatC= 2.87D-04 BMatP= 9.28D-04
 IDIUse=3 WtCom= 9.92D-01 WtEn= 7.92D-03
 Coeff-Com: -0.616D-01 0.416D+00 0.646D+00
 Coeff-En:   0.000D+00 0.000D+00 0.100D+01
 Coeff:     -0.611D-01 0.413D+00 0.648D+00
 Gap=     0.362 Goal=   None    Shift=    0.000
 RMSDP=5.82D-05 MaxDP=3.03D-03 DE=-1.59D-03 OVMax= 5.63D-03

 Cycle   4  Pass 1  IDiag  1:
 RMSU=  5.73D-05    CP:  9.74D-01  1.11D+00  9.47D-01
 E= -307.664735544251     Delta-E=       -0.000165719564 Rises=F Damp=F
 DIIS: error= 4.96D-04 at cycle   4 NSaved=   4.
 NSaved= 4 IEnMin= 4 EnMin= -307.664735544251     IErMin= 4 ErrMin= 4.96D-04
 ErrMax= 4.96D-04  0.00D+00 EMaxC= 1.00D-01 BMatC= 1.07D-04 BMatP= 2.87D-04
 IDIUse=3 WtCom= 9.95D-01 WtEn= 4.96D-03
 Coeff-Com: -0.637D-02-0.143D-01 0.378D+00 0.643D+00
 Coeff-En:   0.000D+00 0.000D+00 0.201D+00 0.799D+00
 Coeff:     -0.634D-02-0.142D-01 0.377D+00 0.644D+00
 Gap=     0.364 Goal=   None    Shift=    0.000
 RMSDP=2.87D-05 MaxDP=1.25D-03 DE=-1.66D-04 OVMax= 2.20D-03

 Cycle   5  Pass 1  IDiag  1:
 RMSU=  1.69D-05    CP:  9.74D-01  1.11D+00  1.08D+00  7.69D-01
 E= -307.664816859090     Delta-E=       -0.000081314839 Rises=F Damp=F
 DIIS: error= 8.11D-05 at cycle   5 NSaved=   5.
 NSaved= 5 IEnMin= 5 EnMin= -307.664816859090     IErMin= 5 ErrMin= 8.11D-05
 ErrMax= 8.11D-05  0.00D+00 EMaxC= 1.00D-01 BMatC= 4.15D-06 BMatP= 1.07D-04
 IDIUse=1 WtCom= 1.00D+00 WtEn= 0.00D+00
 Coeff-Com:  0.317D-02-0.462D-01 0.829D-01 0.235D+00 0.725D+00
 Coeff:      0.317D-02-0.462D-01 0.829D-01 0.235D+00 0.725D+00
 Gap=     0.364 Goal=   None    Shift=    0.000
 RMSDP=7.42D-06 MaxDP=2.86D-04 DE=-8.13D-05 OVMax= 6.66D-04

 Cycle   6  Pass 1  IDiag  1:
 RMSU=  6.14D-06    CP:  9.74D-01  1.11D+00  1.10D+00  8.16D-01  9.59D-01
 E= -307.664821128085     Delta-E=       -0.000004268995 Rises=F Damp=F
 DIIS: error= 3.25D-05 at cycle   6 NSaved=   6.
 NSaved= 6 IEnMin= 6 EnMin= -307.664821128085     IErMin= 6 ErrMin= 3.25D-05
 ErrMax= 3.25D-05  0.00D+00 EMaxC= 1.00D-01 BMatC= 7.55D-07 BMatP= 4.15D-06
 IDIUse=1 WtCom= 1.00D+00 WtEn= 0.00D+00
 Coeff-Com:  0.247D-02-0.217D-01-0.979D-02 0.269D-01 0.329D+00 0.673D+00
 Coeff:      0.247D-02-0.217D-01-0.979D-02 0.269D-01 0.329D+00 0.673D+00
 Gap=     0.364 Goal=   None    Shift=    0.000
 RMSDP=3.12D-06 MaxDP=1.27D-04 DE=-4.27D-06 OVMax= 3.16D-04

 Cycle   7  Pass 1  IDiag  1:
 RMSU=  2.48D-06    CP:  9.74D-01  1.11D+00  1.11D+00  8.20D-01  1.06D+00
                    CP:  1.03D+00
 E= -307.664821923978     Delta-E=       -0.000000795893 Rises=F Damp=F
 DIIS: error= 1.14D-05 at cycle   7 NSaved=   7.
 NSaved= 7 IEnMin= 7 EnMin= -307.664821923978     IErMin= 7 ErrMin= 1.14D-05
 ErrMax= 1.14D-05  0.00D+00 EMaxC= 1.00D-01 BMatC= 5.66D-08 BMatP= 7.55D-07
 IDIUse=1 WtCom= 1.00D+00 WtEn= 0.00D+00
 Coeff-Com:  0.188D-03 0.161D-02-0.134D-01-0.288D-01-0.361D-01 0.149D+00
 Coeff-Com:  0.928D+00
 Coeff:      0.188D-03 0.161D-02-0.134D-01-0.288D-01-0.361D-01 0.149D+00
 Coeff:      0.928D+00
 Gap=     0.364 Goal=   None    Shift=    0.000
 RMSDP=1.61D-06 MaxDP=5.76D-05 DE=-7.96D-07 OVMax= 1.91D-04

 Cycle   8  Pass 1  IDiag  1:
 RMSU=  8.75D-07    CP:  9.74D-01  1.11D+00  1.11D+00  8.20D-01  1.10D+00
                    CP:  1.19D+00  1.23D+00
 E= -307.664822026685     Delta-E=       -0.000000102708 Rises=F Damp=F
 DIIS: error= 6.53D-06 at cycle   8 NSaved=   8.
[...]
           A11        108.18215 108.34965 108.66709
           A12        108.31020 107.76531 107.40797
           A13        108.70272 108.81715 108.66188
           A14        105.99219 105.98886 106.00353
           A15        110.30462 110.35603 110.37150
           A16        110.31334 110.32735 110.37226
           A17        110.67820 110.65733 110.61264
           A18        110.69570 110.65209 110.61292
           A19        108.84263 108.84532 108.85424
           A20        123.02387 123.03068 123.10189
           A21        112.50893 111.83087 111.38146
           A22        124.46572 125.11014 125.51665
           D1         179.87201-179.85530-180.00002
           D2         -60.27904 -60.00537 -60.18649
           D3          59.99737  60.31661  60.18570
           D4          -0.09202  -0.95465   0.00286
           D5        -179.66698 177.19901 180.00311
           D6         -63.81177 -63.19294 -59.48742
           D7         176.23702 176.68099-179.96744
           D8          56.08875  56.15946  59.55404
           D9         178.60262 178.42255 179.72359
           D10         58.65142  58.29647  59.24357
           D11        -61.49685 -62.22506 -61.23495
           D12         58.33837  59.44203  61.28489
           D13        -61.61284 -60.68404 -59.19513
           D14        178.23889 178.79443-179.67365
           D15        119.56771 151.89196-180.00046
           D16        -60.00004 -30.00029  -0.00021
           D17       -121.01003 -87.08478 -56.68736
           D18         59.42222  91.02296 123.31290
           D19         -3.67471  27.35443  56.68838
           D20        176.75754-154.53782-123.31137
 Largest change from initial coordinates is atom   11       0.000 Angstoms.
 GradGradGradGradGradGradGradGradGradGradGradGradGradGradGradGradGradGrad

 Leave Link  103 at Fri Mar 29 17:03:13 2019, MaxMem=   671088640 cpu:               0.5 elap:               0.1
 (Enter /shared/centos7/gaussian/g16/l202.exe)
                          Input orientation:                          
 ---------------------------------------------------------------------
 Center     Atomic      Atomic             Coordinates (Angstroms)
 Number     Number       Type             X           Y           Z
 ---------------------------------------------------------------------
      1          8           0        0.908138    0.743674    0.491596
      2          8           0        0.473037   -1.005237   -0.831574
      3          6           0       -1.344688    0.079931    0.321277
      4          6           0       -2.291502   -0.918114   -0.322792
      5          6           0        2.287896    0.605580    0.162252
      6          6           0        0.087888   -0.146767   -0.086911
      7          1           0       -1.384829    0.032403    1.410875
      8          1           0       -1.599356    1.108384    0.059291
      9          1           0       -2.240850   -0.852350   -1.407806
     10          1           0       -3.316454   -0.728688   -0.009815
     11          1           0       -2.025276   -1.936177   -0.045557
     12          1           0        2.804797    1.390047    0.704623
     13          1           0        2.653308   -0.373921    0.464463
     14          1           0        2.434776    0.720296   -0.909917
 ---------------------------------------------------------------------
                    Distance matrix (angstroms):
                    1          2          3          4          5
     1  O    0.000000
     2  O    2.235795   0.000000
     3  C    2.354737   2.410556   0.000000
     4  C    3.696277   2.812317   1.519005   0.000000
     5  C    1.425226   2.622238   3.673862   4.850546   0.000000
     6  C    1.341778   1.199930   1.506746   2.512391   2.338407
     7  H    2.570735   3.091430   1.091372   2.175118   3.921288
     8  H    2.570492   3.091253   1.091424   2.175258   3.920988
     9  H    4.008884   2.778597   2.159163   1.088184   5.010008
    10  H    4.501826   3.887417   2.156699   1.088285   5.763559
    11  H    4.009371   2.779576   2.159274   1.088204   5.010706
    12  H    2.015066   3.678911   4.368247   5.688185   1.084777
    13  H    2.072528   2.613780   4.026220   5.036572   1.088246
    14  H    2.072537   2.613813   4.026196   5.036547   1.088246
                    6          7          8          9         10
     6  C    0.000000
     7  H    2.108165   0.000000
     8  H    2.107978   1.740843   0.000000
     9  H    2.768687   3.075796   2.531475   0.000000
    10  H    3.454579   2.515709   2.515558   1.768218   0.000000
    11  H    2.769325   2.531141   3.075996   1.754103   1.768176
    12  H    3.220236   4.460376   4.460084   5.911789   6.516837
    13  H    2.633817   4.167414   4.521785   5.261850   5.999071
    14  H    2.633823   4.522019   4.167038   4.958083   5.998865
                   11         12         13         14
    11  H    0.000000
    12  H    5.912372   0.000000
    13  H    4.958822   1.786675   0.000000
    14  H    5.262702   1.786678   1.770307   0.000000
 Stoichiometry    C4H8O2
 Framework group  C1[X(C4H8O2)]
 Deg. of freedom    36
 Full point group                 C1      NOp   1
 RotChk:  IX=2 Diff= 3.78D-16
 Largest Abelian subgroup         C1      NOp   1
 Largest concise Abelian subgroup C1      NOp   1
                         Standard orientation:                         
 ---------------------------------------------------------------------
 Center     Atomic      Atomic             Coordinates (Angstroms)
 Number     Number       Type             X           Y           Z
 ---------------------------------------------------------------------
      1          8           0        1.143213   -0.700749   -0.000035
      2          8           0        0.102031    1.277816   -0.000013
      3          6           0       -1.211133   -0.743663   -0.000008
      4          6           0       -2.460825    0.119847    0.000020
      5          6           0        2.388069   -0.006771    0.000023
      6          6           0        0.051234    0.078962   -0.000020
      7          1           0       -1.172147   -1.400969   -0.870365
      8          1           0       -1.171840   -1.400867    0.870478
      9          1           0       -2.484040    0.763956    0.876792
     10          1           0       -3.354207   -0.501628    0.000607
     11          1           0       -2.484774    0.763202   -0.877310
     12          1           0        3.157022   -0.771919    0.000002
     13          1           0        2.471994    0.620751   -0.885105
     14          1           0        2.471966    0.620683    0.885202
 ---------------------------------------------------------------------
 Rotational constants (GHZ):           9.6748337           2.1660420           1.8294802
 Leave Link  202 at Fri Mar 29 17:03:13 2019, MaxMem=   671088640 cpu:               0.2 elap:               0.0
 (Enter /shared/centos7/gaussian/g16/l601.exe)
 Copying SCF densities to generalized density rwf, IOpCl= 0 IROHF=0.

 **********************************************************************

            Population analysis using the SCF density.

 **********************************************************************

 Orbital symmetries:
       Occupied  (A) (A) (A) (A) (A) (A) (A) (A) (A) (A) (A) (A)
                 (A) (A) (A) (A) (A) (A) (A) (A) (A) (A) (A) (A)
       Virtual   (A) (A) (A) (A) (A) (A) (A) (A) (A) (A) (A) (A)
                 (A) (A) (A) (A) (A) (A) (A) (A) (A) (A) (A) (A)
                 (A) (A) (A) (A) (A) (A) (A) (A) (A) (A) (A) (A)
                 (A) (A) (A) (A) (A) (A) (A) (A) (A) (A) (A) (A)
                 (A) (A) (A) (A) (A) (A) (A) (A) (A) (A) (A) (A)
                 (A) (A) (A) (A) (A) (A) (A) (A) (A) (A) (A) (A)
                 (A) (A) (A) (A) (A) (A) (A) (A) (A) (A) (A) (A)
                 (A) (A) (A) (A) (A) (A) (A) (A) (A) (A) (A) (A)
                 (A) (A) (A) (A) (A) (A) (A) (A) (A) (A) (A) (A)
                 (A) (A) (A) (A) (A) (A) (A) (A) (A) (A) (A) (A)
                 (A) (A) (A) (A) (A) (A) (A) (A) (A) (A) (A) (A)
                 (A) (A) (A) (A) (A) (A) (A) (A) (A) (A) (A) (A)
                 (A) (A) (A) (A) (A) (A) (A) (A) (A) (A) (A) (A)
                 (A) (A) (A) (A) (A) (A) (A) (A) (A) (A) (A) (A)
                 (A) (A) (A) (A) (A) (A) (A) (A) (A) (A) (A) (A)
                 (A) (A) (A) (A) (A) (A) (A) (A) (A) (A) (A) (A)
                 (A) (A) (A) (A) (A) (A) (A) (A) (A) (A) (A) (A)
                 (A) (A) (A) (A) (A) (A) (A) (A) (A) (A) (A) (A)
                 (A) (A) (A) (A) (A) (A) (A) (A) (A) (A) (A) (A)
                 (A) (A) (A) (A) (A) (A) (A) (A) (A) (A) (A) (A)
                 (A) (A) (A) (A) (A) (A) (A) (A) (A) (A) (A) (A)
 The electronic state is 1-A.
 Alpha  occ. eigenvalues --  -19.66863 -19.61280 -10.66807 -10.58921 -10.55064
 Alpha  occ. eigenvalues --  -10.52801  -1.23855  -1.14352  -0.89349  -0.82386
 Alpha  occ. eigenvalues --   -0.73252  -0.64606  -0.58973  -0.58005  -0.56226
 Alpha  occ. eigenvalues --   -0.52482  -0.50589  -0.46018  -0.44639  -0.44048
 Alpha  occ. eigenvalues --   -0.42653  -0.41443  -0.37843  -0.35594
 Alpha virt. eigenvalues --    0.01131   0.02431   0.03677   0.03960   0.05005
 Alpha virt. eigenvalues --    0.05089   0.05753   0.06577   0.08384   0.08733
 Alpha virt. eigenvalues --    0.09016   0.09734   0.10542   0.12387   0.14286
 Alpha virt. eigenvalues --    0.15261   0.17997   0.19119   0.20011   0.20067
 Alpha virt. eigenvalues --    0.21602   0.22426   0.23003   0.23325   0.24349
 Alpha virt. eigenvalues --    0.26440   0.27717   0.28357   0.28444   0.29376
 Alpha virt. eigenvalues --    0.30486   0.32094   0.33755   0.34550   0.36718
 Alpha virt. eigenvalues --    0.38664   0.39656   0.41467   0.44372   0.47140
 Alpha virt. eigenvalues --    0.47821   0.49382   0.50518   0.51628   0.53836
 Alpha virt. eigenvalues --    0.54465   0.55501   0.56194   0.56570   0.57698
 Alpha virt. eigenvalues --    0.61099   0.61348   0.62389   0.63662   0.66426
 Alpha virt. eigenvalues --    0.67340   0.68335   0.70967   0.71669   0.75389
 Alpha virt. eigenvalues --    0.76859   0.78699   0.80792   0.84058   0.84605
 Alpha virt. eigenvalues --    0.87198   0.89470   0.90646   0.92160   0.92742
 Alpha virt. eigenvalues --    0.98539   1.01189   1.02646   1.05899   1.06010
 Alpha virt. eigenvalues --    1.09543   1.10680   1.12091   1.12929   1.13628
 Alpha virt. eigenvalues --    1.16472   1.17514   1.17626   1.18613   1.21358
 Alpha virt. eigenvalues --    1.22795   1.23641   1.24521   1.24528   1.24706
 Alpha virt. eigenvalues --    1.28861   1.30110   1.32920   1.34374   1.35142
 Alpha virt. eigenvalues --    1.39603   1.41985   1.43102   1.43793   1.45845
 Alpha virt. eigenvalues --    1.46727   1.47133   1.49427   1.53066   1.55160
 Alpha virt. eigenvalues --    1.58088   1.59776   1.60734   1.63246   1.65484
 Alpha virt. eigenvalues --    1.67531   1.70031   1.72869   1.77336   1.83302
 Alpha virt. eigenvalues --    1.85141   1.93471   2.06414   2.09901   2.12305
 Alpha virt. eigenvalues --    2.27991   2.35031   2.39289   2.40186   2.49280
 Alpha virt. eigenvalues --    2.52652   2.58108   2.59920   2.66145   2.67911
 Alpha virt. eigenvalues --    2.74590   2.75489   2.79972   2.81262   2.83992
 Alpha virt. eigenvalues --    2.84065   2.84571   2.94349   2.96122   2.98580
 Alpha virt. eigenvalues --    3.00952   3.02278   3.03394   3.07773   3.10533
 Alpha virt. eigenvalues --    3.11397   3.13086   3.13791   3.15341   3.18304
 Alpha virt. eigenvalues --    3.19892   3.24956   3.26040   3.26849   3.28920
 Alpha virt. eigenvalues --    3.31997   3.34989   3.40340   3.40652   3.43067
 Alpha virt. eigenvalues --    3.45078   3.49521   3.51627   3.51717   3.52308
 Alpha virt. eigenvalues --    3.52967   3.56314   3.57857   3.61177   3.61302
 Alpha virt. eigenvalues --    3.67455   3.67958   3.72394   3.77527   3.82848
 Alpha virt. eigenvalues --    3.83163   3.86960   3.87392   3.91243   3.94895
 Alpha virt. eigenvalues --    3.95483   3.97412   4.00601   4.01692   4.02026
 Alpha virt. eigenvalues --    4.06033   4.12702   4.13912   4.17717   4.18662
 Alpha virt. eigenvalues --    4.26508   4.26854   4.28828   4.30997   4.31016
 Alpha virt. eigenvalues --    4.32104   4.32633   4.34824   4.36435   4.43096
 Alpha virt. eigenvalues --    4.48242   4.49799   4.51351   4.54088   4.55662
 Alpha virt. eigenvalues --    4.60850   4.72686   4.91930   4.93144   5.08307
 Alpha virt. eigenvalues --    5.11821   5.14952   5.20606   5.20813   5.23678
 Alpha virt. eigenvalues --    5.27479   5.37356   5.40967   5.45126   5.50682
 Alpha virt. eigenvalues --    5.53212   5.56705   5.57332   5.58222   5.65213
 Alpha virt. eigenvalues --    5.67243   5.69375   5.74853   5.80628   6.00280
 Alpha virt. eigenvalues --    6.09628   6.38778   6.45963   6.69853   6.83658
 Alpha virt. eigenvalues --    6.96610   7.06538   7.11743   7.17797   7.19470
 Alpha virt. eigenvalues --    7.25771   7.31776   7.55371   7.67682   7.77757
 Alpha virt. eigenvalues --    7.83483  24.34337  24.43853  24.46692  24.86020
 Alpha virt. eigenvalues --   50.17732  50.31648
          Condensed to atoms (all electrons):
               1          2          3          4          5          6
     1  O    8.214874  -0.084625  -0.217988   0.008870   0.151201   0.216886
     2  O   -0.084625   8.213296   0.001483  -0.029696  -0.035574   0.348818
     3  C   -0.217988   0.001483   5.666595   0.094549  -0.061827  -0.133667
     4  C    0.008870  -0.029696   0.094549   5.176186  -0.013363   0.077246
     5  C    0.151201  -0.035574  -0.061827  -0.013363   4.967614  -0.107660
     6  C    0.216886   0.348818  -0.133667   0.077246  -0.107660   5.443204
     7  H    0.002449   0.000621   0.450845  -0.038754   0.001429  -0.048659
     8  H    0.002455   0.000622   0.450871  -0.038732   0.001432  -0.048725
     9  H    0.000084  -0.001578  -0.024668   0.412767  -0.000211  -0.006972
    10  H   -0.000608   0.001221  -0.078179   0.424386   0.000452   0.038413
    11  H    0.000084  -0.001574  -0.024591   0.412759  -0.000210  -0.007017
    12  H   -0.059018   0.003702   0.002345   0.000790   0.419186   0.017890
    13  H   -0.035579  -0.004397  -0.001459  -0.000948   0.431124   0.001859
    14  H   -0.035580  -0.004397  -0.001459  -0.000947   0.431122   0.001861
               7          8          9         10         11         12
     1  O    0.002449   0.002455   0.000084  -0.000608   0.000084  -0.059018
     2  O    0.000621   0.000622  -0.001578   0.001221  -0.001574   0.003702
     3  C    0.450845   0.450871  -0.024668  -0.078179  -0.024591   0.002345
     4  C   -0.038754  -0.038732   0.412767   0.424386   0.412759   0.000790
     5  C    0.001429   0.001432  -0.000211   0.000452  -0.000210   0.419186
     6  C   -0.048659  -0.048725  -0.006972   0.038413  -0.007017   0.017890
     7  H    0.517180  -0.037197   0.005411  -0.003513  -0.006676   0.000009
     8  H   -0.037197   0.517212  -0.006666  -0.003523   0.005407   0.000009
     9  H    0.005411  -0.006666   0.528110  -0.025288  -0.031326  -0.000002
    10  H   -0.003513  -0.003523  -0.025288   0.538141  -0.025289  -0.000000
    11  H   -0.006676   0.005407  -0.031326  -0.025289   0.528088  -0.000002
    12  H    0.000009   0.000009  -0.000002  -0.000000  -0.000002   0.533254
    13  H    0.000137  -0.000094   0.000012  -0.000001  -0.000006  -0.025078
    14  H   -0.000094   0.000137  -0.000006  -0.000001   0.000012  -0.025078
              13         14
     1  O   -0.035579  -0.035580
     2  O   -0.004397  -0.004397
     3  C   -0.001459  -0.001459
     4  C   -0.000948  -0.000947
     5  C    0.431124   0.431122
     6  C    0.001859   0.001861
     7  H    0.000137  -0.000094
     8  H   -0.000094   0.000137
     9  H    0.000012  -0.000006
    10  H   -0.000001  -0.000001
    11  H   -0.000006   0.000012
    12  H   -0.025078  -0.025078
    13  H    0.533191  -0.037523
    14  H   -0.037523   0.533191
 Mulliken charges:
               1
     1  O   -0.163506
     2  O   -0.407922
     3  C   -0.122849
     4  C   -0.485113
     5  C   -0.184716
     6  C    0.206524
     7  H    0.156813
     8  H    0.156792
     9  H    0.150332
    10  H    0.133790
    11  H    0.150340
    12  H    0.131993
    13  H    0.138762
    14  H    0.138761
 Sum of Mulliken charges =  -0.00000
 Mulliken charges with hydrogens summed into heavy atoms:
               1
     1  O   -0.163506
     2  O   -0.407922
     3  C    0.190756
     4  C   -0.050651
     5  C    0.224799
     6  C    0.206524
 Electronic spatial extent (au):  <R**2>=            688.1538
 Charge=             -0.0000 electrons
 Dipole moment (field-independent basis, Debye):
    X=              0.3628    Y=             -1.6695    Z=              0.0001  Tot=              1.7085
 Quadrupole moment (field-independent basis, Debye-Ang):
   XX=            -30.8402   YY=            -41.3457   ZZ=            -35.8977
   XY=              1.4917   XZ=              0.0005   YZ=             -0.0000
 Traceless Quadrupole moment (field-independent basis, Debye-Ang):
   XX=              5.1877   YY=             -5.3178   ZZ=              0.1301
   XY=              1.4917   XZ=              0.0005   YZ=             -0.0000
 Octapole moment (field-independent basis, Debye-Ang**2):
  XXX=             19.2471  YYY=             -3.9899  ZZZ=             -0.0010  XYY=              0.1606
  XXY=             -0.2967  XXZ=             -0.0011  XZZ=              1.9759  YZZ=              0.8850
  YYZ=              0.0005  XYZ=              0.0001
 Hexadecapole moment (field-independent basis, Debye-Ang**3):
 XXXX=           -660.1936 YYYY=           -165.1783 ZZZZ=            -54.7745 XXXY=             -2.8533
 XXXZ=              0.0016 YYYX=             -1.1317 YYYZ=              0.0015 ZZZX=              0.0036
 ZZZY=             -0.0004 XXYY=           -139.3948 XXZZ=           -125.5885 YYZZ=            -33.0517
 XXYZ=             -0.0025 YYXZ=             -0.0007 ZZXY=              0.7658
 N-N= 2.465099960964D+02 E-N=-1.212772328060D+03  KE= 3.065733531111D+02
 No NMR shielding tensors so no spin-rotation constants.
 Leave Link  601 at Fri Mar 29 17:03:14 2019, MaxMem=   671088640 cpu:               6.6 elap:               0.4
 (Enter /shared/centos7/gaussian/g16/l9999.exe)
 1\1\GINC-C0059\Scan\RM062X\6-311+G(2df,2p)\C4H8O2\UNDERKOFFLER.C\29-Ma
 r-2019\0\\#p m062x/6-311+g(2df,2p) Opt=(CalcFC,ModRedun)\\Gaussian Inp
 ut Prepared from Scan Object\\0,1\O,0.9081383751,0.7436738772,0.491596
 3622\O,0.4730373476,-1.0052365323,-0.8315736473\C,-1.3446877454,0.0799
 313626,0.3212773938\C,-2.2915017462,-0.9181141786,-0.3227924251\C,2.28
 78962066,0.6055799323,0.1622519161\C,0.0878877447,-0.1467671443,-0.086
 9114449\H,-1.384829028,0.0324033814,1.4108745113\H,-1.5993563308,1.108
 3836604,0.0592913016\H,-2.2408499504,-0.8523500521,-1.4078059297\H,-3.
 3164537503,-0.7286880966,-0.009814979\H,-2.0252761183,-1.9361774635,-0
 .0455571367\H,2.8047970634,1.3900465028,0.7046225583\H,2.6533075896,-0
 .3739210964,0.464462703\H,2.4347763423,0.7202958469,-0.9099171834\\Ver
 sion=EM64L-G16RevA.03\State=1-A\HF=-307.6763594,-307.6756639,-307.6746
 313,-307.6746179,-307.6746534,-307.6744628,-307.6742626,-307.6744628,-
 307.6746534,-307.6746179,-307.6746313,-307.6756638,-307.6763594\RMSD=6
 .148e-09,6.093e-09,9.784e-09,2.972e-09,4.355e-09,8.055e-09,9.581e-09,4
 .390e-09,8.892e-09,4.631e-09,3.905e-09,4.773e-09,4.657e-09\PG=C01 [X(C
 4H8O2)]\\@


 WE STILL HAVE JUDGEMENT HERE,
 THAT WE TEACH BUT BLOODY INSTRUCTIONS,
 WHICH, BEING TAUGHT,
 RETURN TO PLAGUE THE INVENTOR.
           MACBETH ACT I, SCENE VII
 Job cpu time:       0 days 19 hours 54 minutes 39.1 seconds.
 Elapsed time:       0 days  1 hours  0 minutes  6.8 seconds.
 File lengths (MBytes):  RWF=   1328 Int=      0 D2E=      0 Chk=     32 Scr=     32
 Normal termination of Gaussian 16 at Fri Mar 29 17:03:14 2019.
