 Entering Gaussian System, Link 0=g16
 Input=RJUFJBKOKNCXHH-UHFFFAOYSA-N_GeoFreq_a1.com
 Output=RJUFJBKOKNCXHH-UHFFFAOYSA-N_GeoFreq_a1.log
 Initial command:
 /shared/centos7/gaussian/g16/l1.exe "/scratch/underkoffler.c/gaussian_scratch/Gau-7786.inp" -scrdir="/scratch/underkoffler.c/gaussian_scratch/"
 Entering Link 1 = /shared/centos7/gaussian/g16/l1.exe PID=      7787.
  
 Copyright (c) 1988,1990,1992,1993,1995,1998,2003,2009,2016,
            Gaussian, Inc.  All Rights Reserved.
  
 This is part of the Gaussian(R) 16 program.  It is based on
 the Gaussian(R) 09 system (copyright 2009, Gaussian, Inc.),
 the Gaussian(R) 03 system (copyright 2003, Gaussian, Inc.),
 the Gaussian(R) 98 system (copyright 1998, Gaussian, Inc.),
 the Gaussian(R) 94 system (copyright 1995, Gaussian, Inc.),
 the Gaussian 92(TM) system (copyright 1992, Gaussian, Inc.),
 the Gaussian 90(TM) system (copyright 1990, Gaussian, Inc.),
 the Gaussian 88(TM) system (copyright 1988, Gaussian, Inc.),
 the Gaussian 86(TM) system (copyright 1986, Carnegie Mellon
 University), and the Gaussian 82(TM) system (copyright 1983,
 Carnegie Mellon University). Gaussian is a federally registered
 trademark of Gaussian, Inc.
  
 This software contains proprietary and confidential information,
 including trade secrets, belonging to Gaussian, Inc.
  
 This software is provided under written license and may be
 used, copied, transmitted, or stored only in accord with that
 written license.
  
 The following legend is applicable only to US Government
 contracts under FAR:
  
                    RESTRICTED RIGHTS LEGEND
  
 Use, reproduction and disclosure by the US Government is
 subject to restrictions as set forth in subparagraphs (a)
 and (c) of the Commercial Computer Software - Restricted
 Rights clause in FAR 52.227-19.
  
 Gaussian, Inc.
 340 Quinnipiac St., Bldg. 40, Wallingford CT 06492
  
  
 ---------------------------------------------------------------
 Warning -- This program may not be used in any manner that
 competes with the business of Gaussian, Inc. or will provide
 assistance to any competitor of Gaussian, Inc.  The licensee
 of this program is prohibited from giving any competitor of
 Gaussian, Inc. access to this program.  By using this program,
 the user acknowledges that Gaussian, Inc. is engaged in the
 business of creating and licensing software in the field of
 computational chemistry and represents and warrants to the
 licensee that it is not a competitor of Gaussian, Inc. and that
 it will not use this program in any manner prohibited above.
 ---------------------------------------------------------------
  

 Cite this work as:
 Gaussian 16, Revision A.03,
 M. J. Frisch, G. W. Trucks, H. B. Schlegel, G. E. Scuseria, 
 M. A. Robb, J. R. Cheeseman, G. Scalmani, V. Barone, 
 G. A. Petersson, H. Nakatsuji, X. Li, M. Caricato, A. V. Marenich, 
 J. Bloino, B. G. Janesko, R. Gomperts, B. Mennucci, H. P. Hratchian, 
 J. V. Ortiz, A. F. Izmaylov, J. L. Sonnenberg, D. Williams-Young, 
 F. Ding, F. Lipparini, F. Egidi, J. Goings, B. Peng, A. Petrone, 
 T. Henderson, D. Ranasinghe, V. G. Zakrzewski, J. Gao, N. Rega, 
 G. Zheng, W. Liang, M. Hada, M. Ehara, K. Toyota, R. Fukuda, 
 J. Hasegawa, M. Ishida, T. Nakajima, Y. Honda, O. Kitao, H. Nakai, 
 T. Vreven, K. Throssell, J. A. Montgomery, Jr., J. E. Peralta, 
 F. Ogliaro, M. J. Bearpark, J. J. Heyd, E. N. Brothers, K. N. Kudin, 
 V. N. Staroverov, T. A. Keith, R. Kobayashi, J. Normand, 
 K. Raghavachari, A. P. Rendell, J. C. Burant, S. S. Iyengar, 
 J. Tomasi, M. Cossi, J. M. Millam, M. Klene, C. Adamo, R. Cammi, 
 J. W. Ochterski, R. L. Martin, K. Morokuma, O. Farkas, 
 J. B. Foresman, and D. J. Fox, Gaussian, Inc., Wallingford CT, 2016.
 
 ******************************************
 Gaussian 16:  EM64L-G16RevA.03 25-Dec-2016
                11-Mar-2019 
 ******************************************
 %nprocshared=20
 Will use up to   20 processors via shared memory.
 %mem=5GB
 ----------------------------------------------------------------------
 #p m062x/6-311+g(2df,2p) opt=(calcfc,verytight,gdiis,maxcycles=900) fr
 eq iop(7/33=1,2/16=3)
 ----------------------------------------------------------------------

 Warning!  Use of Opt=GDIIS is deprecated since it is seldom a good choice.

 1/6=900,7=1,10=4,18=20,19=11,26=3,38=1/1,3;
 2/9=110,12=2,16=3,17=6,18=5,40=1/2;
 3/5=4,6=6,7=214,11=2,25=1,30=1,71=2,74=-55,140=1/1,2,3;
 4//1;
 5/5=2,38=5/2;
 8/6=4,10=90,11=11/1;
 11/6=1,8=1,9=11,15=111,16=1/1,2,10;
 10/6=1,13=1/2;
 6/7=2,8=2,9=2,10=2,28=1/1;
 7/10=1,18=20,25=1,33=1/1,2,3,16;
 1/6=900,7=1,10=4,18=20,19=11,26=3/3(2);
 2/9=110,16=3/2;
 99//99;
 2/9=110,16=3/2;
 3/5=4,6=6,7=214,11=2,25=1,30=1,71=1,74=-55/1,2,3;
 4/5=5,16=3,69=1/1;
 5/5=2,38=5/2;
 7/33=1/1,2,3,16;
 1/6=900,7=1,18=20,19=11,26=3/3(-5);
 2/9=110,16=3/2;
 6/7=2,8=2,9=2,10=2,19=2,28=1/1;
 99/9=1/99;
 Leave Link    1 at Mon Mar 11 15:46:04 2019, MaxMem=   671088640 cpu:              38.4 elap:               2.0
 (Enter /shared/centos7/gaussian/g16/l101.exe)
 ------------------------------
 Gaussian input prepared by ASE
 ------------------------------
 Symbolic Z-matrix:
 Charge =  0 Multiplicity = 1
 O                     1.14326  -0.70073   0. 
 O                     0.10186   1.27773  0. 
 C                    -1.21113  -0.74369  0. 
 C                    -2.46073   0.11987   0. 
 C                     2.38807  -0.00667   0. 
 C                     0.05125   0.07888  0. 
 H                    -1.17195  -1.40094  -0.87043 
 H                    -1.17195  -1.40095   0.87042 
 H                    -2.48427   0.76359   0.87706 
 H                    -3.3542   -0.5015    0. 
 H                    -2.48427   0.76359  -0.87705 
 H                     3.15708  -0.77177   0. 
 H                     2.47194   0.62082  -0.88515 
 H                     2.47194   0.62082   0.88515 
 
 ITRead=  0  0  0  0  0  0  0  0  0  0  0  0  0  0
 MicOpt= -1 -1 -1 -1 -1 -1 -1 -1 -1 -1 -1 -1 -1 -1
 NAtoms=     14 NQM=       14 NQMF=       0 NMMI=      0 NMMIF=      0
                NMic=       0 NMicF=      0.
                    Isotopes and Nuclear Properties:
 (Nuclear quadrupole moments (NQMom) in fm**2, nuclear magnetic moments (NMagM)
  in nuclear magnetons)

  Atom         1           2           3           4           5           6           7           8           9          10
 IAtWgt=          16          16          12          12          12          12           1           1           1           1
 AtmWgt=  15.9949146  15.9949146  12.0000000  12.0000000  12.0000000  12.0000000   1.0078250   1.0078250   1.0078250   1.0078250
 NucSpn=           0           0           0           0           0           0           1           1           1           1
 AtZEff=  -0.0000000  -0.0000000  -0.0000000  -0.0000000  -0.0000000  -0.0000000  -0.0000000  -0.0000000  -0.0000000  -0.0000000
 NQMom=    0.0000000   0.0000000   0.0000000   0.0000000   0.0000000   0.0000000   0.0000000   0.0000000   0.0000000   0.0000000
 NMagM=    0.0000000   0.0000000   0.0000000   0.0000000   0.0000000   0.0000000   2.7928460   2.7928460   2.7928460   2.7928460
 AtZNuc=   8.0000000   8.0000000   6.0000000   6.0000000   6.0000000   6.0000000   1.0000000   1.0000000   1.0000000   1.0000000

  Atom        11          12          13          14
 IAtWgt=           1           1           1           1
 AtmWgt=   1.0078250   1.0078250   1.0078250   1.0078250
 NucSpn=           1           1           1           1
 AtZEff=  -0.0000000  -0.0000000  -0.0000000  -0.0000000
 NQMom=    0.0000000   0.0000000   0.0000000   0.0000000
 NMagM=    2.7928460   2.7928460   2.7928460   2.7928460
 AtZNuc=   1.0000000   1.0000000   1.0000000   1.0000000
 Leave Link  101 at Mon Mar 11 15:46:04 2019, MaxMem=   671088640 cpu:               7.0 elap:               0.4
 (Enter /shared/centos7/gaussian/g16/l103.exe)

 GradGradGradGradGradGradGradGradGradGradGradGradGradGradGradGradGradGrad
 Berny optimization.
 Initialization pass.
                           ----------------------------
                           !    Initial Parameters    !
                           ! (Angstroms and Degrees)  !
 --------------------------                            --------------------------
 ! Name  Definition              Value          Derivative Info.                !
 --------------------------------------------------------------------------------
 ! R1    R(1,5)                  1.4252         calculate D2E/DX2 analytically  !
 ! R2    R(1,6)                  1.3417         calculate D2E/DX2 analytically  !
 ! R3    R(2,6)                  1.1999         calculate D2E/DX2 analytically  !
 ! R4    R(3,4)                  1.519          calculate D2E/DX2 analytically  !
 ! R5    R(3,6)                  1.5067         calculate D2E/DX2 analytically  !
 ! R6    R(3,7)                  1.0914         calculate D2E/DX2 analytically  !
 ! R7    R(3,8)                  1.0914         calculate D2E/DX2 analytically  !
 ! R8    R(4,9)                  1.0882         calculate D2E/DX2 analytically  !
 ! R9    R(4,10)                 1.0883         calculate D2E/DX2 analytically  !
 ! R10   R(4,11)                 1.0882         calculate D2E/DX2 analytically  !
 ! R11   R(5,12)                 1.0848         calculate D2E/DX2 analytically  !
 ! R12   R(5,13)                 1.0882         calculate D2E/DX2 analytically  !
 ! R13   R(5,14)                 1.0882         calculate D2E/DX2 analytically  !
 ! A1    A(5,1,6)              115.3336         calculate D2E/DX2 analytically  !
 ! A2    A(4,3,6)              112.265          calculate D2E/DX2 analytically  !
 ! A3    A(4,3,7)              111.8328         calculate D2E/DX2 analytically  !
 ! A4    A(4,3,8)              111.8329         calculate D2E/DX2 analytically  !
 ! A5    A(6,3,7)              107.3789         calculate D2E/DX2 analytically  !
 ! A6    A(6,3,8)              107.3791         calculate D2E/DX2 analytically  !
 ! A7    A(7,3,8)              105.7892         calculate D2E/DX2 analytically  !
 ! A8    A(3,4,9)              110.7385         calculate D2E/DX2 analytically  !
 ! A9    A(3,4,10)             110.5363         calculate D2E/DX2 analytically  !
 ! A10   A(3,4,11)             110.7385         calculate D2E/DX2 analytically  !
 ! A11   A(9,4,10)             108.6625         calculate D2E/DX2 analytically  !
 ! A12   A(9,4,11)             107.409          calculate D2E/DX2 analytically  !
 ! A13   A(10,4,11)            108.6624         calculate D2E/DX2 analytically  !
 ! A14   A(1,5,12)             106.0037         calculate D2E/DX2 analytically  !
 ! A15   A(1,5,13)             110.3716         calculate D2E/DX2 analytically  !
 ! A16   A(1,5,14)             110.3716         calculate D2E/DX2 analytically  !
 ! A17   A(12,5,13)            110.6129         calculate D2E/DX2 analytically  !
 ! A18   A(12,5,14)            110.6129         calculate D2E/DX2 analytically  !
 ! A19   A(13,5,14)            108.8545         calculate D2E/DX2 analytically  !
 ! A20   A(1,6,2)              123.1066         calculate D2E/DX2 analytically  !
 ! A21   A(1,6,3)              111.3877         calculate D2E/DX2 analytically  !
 ! A22   A(2,6,3)              125.5057         calculate D2E/DX2 analytically  !
 ! D1    D(6,1,5,12)          -179.9999         calculate D2E/DX2 analytically  !
 ! D2    D(6,1,5,13)           -60.186          calculate D2E/DX2 analytically  !
 ! D3    D(6,1,5,14)            60.1861         calculate D2E/DX2 analytically  !
 ! D4    D(5,1,6,2)             -0.0001         calculate D2E/DX2 analytically  !
 ! D5    D(5,1,6,3)            180.0            calculate D2E/DX2 analytically  !
 ! D6    D(6,3,4,9)            -59.5211         calculate D2E/DX2 analytically  !
 ! D7    D(6,3,4,10)           179.9999         calculate D2E/DX2 analytically  !
 ! D8    D(6,3,4,11)            59.5209         calculate D2E/DX2 analytically  !
 ! D9    D(7,3,4,9)            179.7005         calculate D2E/DX2 analytically  !
 ! D10   D(7,3,4,10)            59.2214         calculate D2E/DX2 analytically  !
 ! D11   D(7,3,4,11)           -61.2575         calculate D2E/DX2 analytically  !
 ! D12   D(8,3,4,9)             61.2575         calculate D2E/DX2 analytically  !
 ! D13   D(8,3,4,10)           -59.2215         calculate D2E/DX2 analytically  !
 ! D14   D(8,3,4,11)          -179.7004         calculate D2E/DX2 analytically  !
 ! D15   D(4,3,6,1)            179.9998         calculate D2E/DX2 analytically  !
 ! D16   D(4,3,6,2)             -0.0001         calculate D2E/DX2 analytically  !
 ! D17   D(7,3,6,1)            -56.6865         calculate D2E/DX2 analytically  !
 ! D18   D(7,3,6,2)            123.3136         calculate D2E/DX2 analytically  !
 ! D19   D(8,3,6,1)             56.686          calculate D2E/DX2 analytically  !
 ! D20   D(8,3,6,2)           -123.3139         calculate D2E/DX2 analytically  !
 --------------------------------------------------------------------------------
 Trust Radius=3.00D-01 FncErr=1.00D-07 GrdErr=1.00D-06 EigMax=2.50D+02 EigMin=1.00D-04
 Number of steps in this run=    100 maximum allowed number of steps=    100.
 GradGradGradGradGradGradGradGradGradGradGradGradGradGradGradGradGradGrad

 Leave Link  103 at Mon Mar 11 15:46:04 2019, MaxMem=   671088640 cpu:               0.7 elap:               0.1
 (Enter /shared/centos7/gaussian/g16/l202.exe)
                          Input orientation:                          
 ---------------------------------------------------------------------
 Center     Atomic      Atomic             Coordinates (Angstroms)
 Number     Number       Type             X           Y           Z
 ---------------------------------------------------------------------
      1          8           0        1.143256   -0.700732    0.000001
      2          8           0        0.101861    1.277730   -0.000001
      3          6           0       -1.211131   -0.743685   -0.000001
      4          6           0       -2.460734    0.119865    0.000002
      5          6           0        2.388074   -0.006671    0.000001
      6          6           0        0.051249    0.078881   -0.000001
      7          1           0       -1.171953   -1.400941   -0.870427
      8          1           0       -1.171952   -1.400946    0.870420
      9          1           0       -2.484273    0.763589    0.877062
     10          1           0       -3.354195   -0.501498    0.000000
     11          1           0       -2.484274    0.763594   -0.877054
     12          1           0        3.157078   -0.771767    0.000001
     13          1           0        2.471940    0.620820   -0.885153
     14          1           0        2.471940    0.620821    0.885154
 ---------------------------------------------------------------------
                    Distance matrix (angstroms):
                    1          2          3          4          5
     1  O    0.000000
     2  O    2.235803   0.000000
     3  C    2.354779   2.410408   0.000000
     4  C    3.696231   2.812036   1.518956   0.000000
     5  C    1.425234   2.622300   3.673890   4.850459   0.000000
     6  C    1.341744   1.199917   1.506724   2.512317   2.338391
     7  H    2.570628   3.091201   1.091404   2.175191   3.921151
     8  H    2.570626   3.091203   1.091403   2.175190   3.921150
     9  H    4.009045   2.778789   2.159168   1.088195   5.010220
    10  H    4.501862   3.887155   2.156705   1.088285   5.763550
    11  H    4.009046   2.778786   2.159168   1.088195   5.010220
    12  H    2.015074   3.678966   4.368299   5.688130   1.084776
    13  H    2.072534   2.613867   4.026212   5.036440   1.088244
    14  H    2.072535   2.613867   4.026213   5.036440   1.088244
                    6          7          8          9         10
     6  C    0.000000
     7  H    2.108017   0.000000
     8  H    2.108018   1.740847   0.000000
     9  H    2.768923   3.075889   2.531293   0.000000
    10  H    3.454546   2.515715   2.515715   1.768176   0.000000
    11  H    2.768922   2.531293   3.075888   1.754116   1.768175
    12  H    3.220214   4.460271   4.460269   5.911970   6.516880
    13  H    2.633807   4.167216   4.521894   5.262113   5.998912
    14  H    2.633808   4.521896   4.167218   4.958275   5.998912
                   11         12         13         14
    11  H    0.000000
    12  H    5.911972   0.000000
    13  H    4.958277   1.786676   0.000000
    14  H    5.262112   1.786676   1.770307   0.000000
 Stoichiometry    C4H8O2
 Framework group  C1[X(C4H8O2)]
 Deg. of freedom    36
 Full point group                 C1      NOp   1
 Largest Abelian subgroup         C1      NOp   1
 Largest concise Abelian subgroup C1      NOp   1
                         Standard orientation:                         
 ---------------------------------------------------------------------
 Center     Atomic      Atomic             Coordinates (Angstroms)
 Number     Number       Type             X           Y           Z
 ---------------------------------------------------------------------
      1          8           0        1.143256   -0.700732    0.000001
      2          8           0        0.101861    1.277730   -0.000001
      3          6           0       -1.211131   -0.743685   -0.000001
      4          6           0       -2.460734    0.119865    0.000002
      5          6           0        2.388074   -0.006671    0.000001
      6          6           0        0.051249    0.078881   -0.000001
      7          1           0       -1.171953   -1.400941   -0.870427
      8          1           0       -1.171952   -1.400946    0.870420
      9          1           0       -2.484273    0.763589    0.877062
     10          1           0       -3.354195   -0.501498   -0.000000
     11          1           0       -2.484274    0.763594   -0.877054
     12          1           0        3.157078   -0.771767    0.000001
     13          1           0        2.471940    0.620820   -0.885153
     14          1           0        2.471940    0.620821    0.885154
 ---------------------------------------------------------------------
 Rotational constants (GHZ):           9.6754857           2.1660947           1.8295415
 Leave Link  202 at Mon Mar 11 15:46:04 2019, MaxMem=   671088640 cpu:               0.3 elap:               0.0
 (Enter /shared/centos7/gaussian/g16/l301.exe)
 Standard basis: 6-311+G(2df,2p) (5D, 7F)
 Ernie: Thresh=  0.10000D-02 Tol=  0.10000D-05 Strict=F.
 There are   306 symmetry adapted cartesian basis functions of A   symmetry.
 There are   276 symmetry adapted basis functions of A   symmetry.
   276 basis functions,   400 primitive gaussians,   306 cartesian basis functions
    24 alpha electrons       24 beta electrons
       nuclear repulsion energy       246.5133764439 Hartrees.
 IExCor= 4336 DFT=T Ex+Corr=M062X ExCW=0 ScaHFX=  0.540000
 ScaDFX=  1.000000  1.000000  1.000000  1.000000 ScalE2=  1.000000  1.000000
 IRadAn=      5 IRanWt=     -1 IRanGd=            0 ICorTp=0 IEmpDi=  4
 NAtoms=   14 NActive=   14 NUniq=   14 SFac= 1.00D+00 NAtFMM=   60 NAOKFM=F Big=F
 Integral buffers will be    131072 words long.
 Raffenetti 2 integral format.
 Two-electron integral symmetry is turned on.
 Leave Link  301 at Mon Mar 11 15:46:04 2019, MaxMem=   671088640 cpu:               1.3 elap:               0.1
 (Enter /shared/centos7/gaussian/g16/l302.exe)
 NPDir=0 NMtPBC=     1 NCelOv=     1 NCel=       1 NClECP=     1 NCelD=      1
         NCelK=      1 NCelE2=     1 NClLst=     1 CellRange=     0.0.
 One-electron integrals computed using PRISM.
 One-electron integral symmetry used in STVInt
 NBasis=   276 RedAO= T EigKep=  2.92D-05  NBF=   276
 NBsUse=   276 1.00D-06 EigRej= -1.00D+00 NBFU=   276
 Precomputing XC quadrature grid using
 IXCGrd= 4 IRadAn=           5 IRanWt=          -1 IRanGd=           0 AccXCQ= 0.00D+00.
 Generated NRdTot=       0 NPtTot=           0 NUsed=           0 NTot=          32
 NSgBfM=   306   306   306   306   306 MxSgAt=    14 MxSgA2=    14.
 Leave Link  302 at Mon Mar 11 15:46:05 2019, MaxMem=   671088640 cpu:               9.0 elap:               0.5
 (Enter /shared/centos7/gaussian/g16/l303.exe)
 DipDrv:  MaxL=1.
 Leave Link  303 at Mon Mar 11 15:46:05 2019, MaxMem=   671088640 cpu:               0.7 elap:               0.1
 (Enter /shared/centos7/gaussian/g16/l401.exe)
 ExpMin= 4.38D-02 ExpMax= 8.59D+03 ExpMxC= 1.30D+03 IAcc=3 IRadAn=         5 AccDes= 0.00D+00
 Harris functional with IExCor= 1009 and IRadAn=       5 diagonalized for initial guess.
 HarFok:  IExCor= 1009 AccDes= 0.00D+00 IRadAn=         5 IDoV= 1 UseB2=F ITyADJ=14
 ICtDFT=  3500011 ScaDFX=  1.000000  1.000000  1.000000  1.000000
 FoFCou: FMM=F IPFlag=           0 FMFlag=      100000 FMFlg1=           0
         NFxFlg=           0 DoJE=T BraDBF=F KetDBF=T FulRan=T
         wScrn=  0.000000 ICntrl=       500 IOpCl=  0 I1Cent=   200000004 NGrid=           0
         NMat0=    1 NMatS0=      1 NMatT0=    0 NMatD0=    1 NMtDS0=    0 NMtDT0=    0
 Petite list used in FoFCou.
 Harris En= -307.574768911299    
 JPrj=0 DoOrth=F DoCkMO=F.
 Leave Link  401 at Mon Mar 11 15:46:07 2019, MaxMem=   671088640 cpu:              35.7 elap:               1.8
 (Enter /shared/centos7/gaussian/g16/l502.exe)
 Integral symmetry usage will be decided dynamically.
 Closed shell SCF:
 Using DIIS extrapolation, IDIIS=  1040.
 NGot=   671088640 LenX=   670892442 LenY=   670798365
 Requested convergence on RMS density matrix=1.00D-08 within 128 cycles.
 Requested convergence on MAX density matrix=1.00D-06.
 Requested convergence on             energy=1.00D-06.
 No special actions if energy rises.
 Fock matrices will be formed incrementally for  20 cycles.

 Cycle   1  Pass 1  IDiag  1:
 FoFJK:  IHMeth= 1 ICntrl=       0 DoSepK=F KAlg= 0 I1Cent=           0 FoldK=F
 IRaf= 960000000 NMat=       1 IRICut=       1 DoRegI=T DoRafI=F ISym2E= 0 IDoP0=0 IntGTp=1.
 FoFCou: FMM=F IPFlag=           0 FMFlag=      100000 FMFlg1=           0
         NFxFlg=           0 DoJE=F BraDBF=F KetDBF=F FulRan=T
         wScrn=  0.000000 ICntrl=         0 IOpCl=  0 I1Cent=           0 NGrid=           0
         NMat0=    1 NMatS0=      1 NMatT0=    0 NMatD0=    1 NMtDS0=    0 NMtDT0=    0
 Symmetry not used in FoFCou.
 E= -307.466600610639    
 DIIS: error= 3.26D-02 at cycle   1 NSaved=   1.
 NSaved= 1 IEnMin= 1 EnMin= -307.466600610639     IErMin= 1 ErrMin= 3.26D-02
 ErrMax= 3.26D-02  0.00D+00 EMaxC= 1.00D-01 BMatC= 2.86D-01 BMatP= 2.86D-01
 IDIUse=3 WtCom= 6.74D-01 WtEn= 3.26D-01
 Coeff-Com:  0.100D+01
 Coeff-En:   0.100D+01
 Coeff:      0.100D+01
 Gap=     0.322 Goal=   None    Shift=    0.000
 GapD=    0.322 DampG=1.000 DampE=0.500 DampFc=0.5000 IDamp=-1.
 Damping current iteration by 5.00D-01
 RMSDP=2.70D-03 MaxDP=1.09D-01              OVMax= 1.90D-01

 Cycle   2  Pass 1  IDiag  1:
 RMSU=  1.32D-03    CP:  9.71D-01
 E= -307.566995311168     Delta-E=       -0.100394700528 Rises=F Damp=T
 DIIS: error= 5.85D-03 at cycle   2 NSaved=   2.
 NSaved= 2 IEnMin= 2 EnMin= -307.566995311168     IErMin= 2 ErrMin= 5.85D-03
 ErrMax= 5.85D-03  0.00D+00 EMaxC= 1.00D-01 BMatC= 2.29D-02 BMatP= 2.86D-01
 IDIUse=3 WtCom= 9.41D-01 WtEn= 5.85D-02
 Coeff-Com: -0.253D-01 0.103D+01
 Coeff-En:   0.000D+00 0.100D+01
 Coeff:     -0.238D-01 0.102D+01
 Gap=     0.388 Goal=   None    Shift=    0.000
 RMSDP=1.08D-03 MaxDP=8.07D-02 DE=-1.00D-01 OVMax= 1.12D-01

 Cycle   3  Pass 1  IDiag  1:
 RMSU=  1.04D-03    CP:  9.42D-01  9.57D-01
 E= -307.665118819850     Delta-E=       -0.098123508683 Rises=F Damp=F
 DIIS: error= 7.46D-03 at cycle   3 NSaved=   3.
 NSaved= 3 IEnMin= 3 EnMin= -307.665118819850     IErMin= 2 ErrMin= 5.85D-03
 ErrMax= 7.46D-03  0.00D+00 EMaxC= 1.00D-01 BMatC= 1.57D-02 BMatP= 2.29D-02
 IDIUse=3 WtCom= 9.25D-01 WtEn= 7.46D-02
 Coeff-Com: -0.816D-01 0.486D+00 0.596D+00
 Coeff-En:   0.000D+00 0.000D+00 0.100D+01
 Coeff:     -0.755D-01 0.450D+00 0.626D+00
 Gap=     0.369 Goal=   None    Shift=    0.000
 RMSDP=3.85D-04 MaxDP=1.59D-02 DE=-9.81D-02 OVMax= 4.50D-02

 Cycle   4  Pass 1  IDiag  1:
 RMSU=  3.64D-04    CP:  9.43D-01  1.04D+00  9.41D-01
 E= -307.674247239045     Delta-E=       -0.009128419194 Rises=F Damp=F
 DIIS: error= 3.35D-03 at cycle   4 NSaved=   4.
 NSaved= 4 IEnMin= 4 EnMin= -307.674247239045     IErMin= 4 ErrMin= 3.35D-03
 ErrMax= 3.35D-03  0.00D+00 EMaxC= 1.00D-01 BMatC= 2.86D-03 BMatP= 1.57D-02
 IDIUse=3 WtCom= 9.67D-01 WtEn= 3.35D-02
 Coeff-Com: -0.292D-01 0.814D-01 0.331D+00 0.617D+00
 Coeff-En:   0.000D+00 0.000D+00 0.151D+00 0.849D+00
 Coeff:     -0.282D-01 0.787D-01 0.325D+00 0.624D+00
 Gap=     0.367 Goal=   None    Shift=    0.000
 RMSDP=1.36D-04 MaxDP=5.31D-03 DE=-9.13D-03 OVMax= 1.17D-02

 Cycle   5  Pass 1  IDiag  1:
 RMSU=  6.53D-05    CP:  9.40D-01  1.02D+00  1.00D+00  7.41D-01
 E= -307.676314094283     Delta-E=       -0.002066855238 Rises=F Damp=F
 DIIS: error= 4.16D-04 at cycle   5 NSaved=   5.
 NSaved= 5 IEnMin= 5 EnMin= -307.676314094283     IErMin= 5 ErrMin= 4.16D-04
 ErrMax= 4.16D-04  0.00D+00 EMaxC= 1.00D-01 BMatC= 5.71D-05 BMatP= 2.86D-03
 IDIUse=3 WtCom= 9.96D-01 WtEn= 4.16D-03
 Coeff-Com: -0.703D-02 0.132D-01 0.103D+00 0.241D+00 0.650D+00
 Coeff-En:   0.000D+00 0.000D+00 0.000D+00 0.000D+00 0.100D+01
 Coeff:     -0.700D-02 0.131D-01 0.102D+00 0.240D+00 0.651D+00
 Gap=     0.367 Goal=   None    Shift=    0.000
 RMSDP=2.30D-05 MaxDP=1.12D-03 DE=-2.07D-03 OVMax= 2.30D-03

 Cycle   6  Pass 1  IDiag  1:
 RMSU=  1.96D-05    CP:  9.39D-01  1.02D+00  1.01D+00  7.62D-01  9.38D-01
 E= -307.676353115742     Delta-E=       -0.000039021459 Rises=F Damp=F
 DIIS: error= 1.28D-04 at cycle   6 NSaved=   6.
 NSaved= 6 IEnMin= 6 EnMin= -307.676353115742     IErMin= 6 ErrMin= 1.28D-04
 ErrMax= 1.28D-04  0.00D+00 EMaxC= 1.00D-01 BMatC= 7.45D-06 BMatP= 5.71D-05
 IDIUse=3 WtCom= 9.99D-01 WtEn= 1.28D-03
 Coeff-Com: -0.185D-03-0.233D-02 0.150D-01 0.468D-01 0.296D+00 0.645D+00
 Coeff-En:   0.000D+00 0.000D+00 0.000D+00 0.000D+00 0.000D+00 0.100D+01
 Coeff:     -0.185D-03-0.233D-02 0.150D-01 0.467D-01 0.296D+00 0.645D+00
 Gap=     0.367 Goal=   None    Shift=    0.000
 RMSDP=9.01D-06 MaxDP=4.00D-04 DE=-3.90D-05 OVMax= 4.91D-04

 Cycle   7  Pass 1  IDiag  1:
 RMSU=  6.38D-06    CP:  9.39D-01  1.01D+00  1.01D+00  7.68D-01  9.92D-01
                    CP:  9.86D-01
 E= -307.676358818173     Delta-E=       -0.000005702431 Rises=F Damp=F
 DIIS: error= 4.10D-05 at cycle   7 NSaved=   7.
 NSaved= 7 IEnMin= 7 EnMin= -307.676358818173     IErMin= 7 ErrMin= 4.10D-05
 ErrMax= 4.10D-05  0.00D+00 EMaxC= 1.00D-01 BMatC= 4.06D-07 BMatP= 7.45D-06
 IDIUse=1 WtCom= 1.00D+00 WtEn= 0.00D+00
 Coeff-Com:  0.113D-02-0.266D-02-0.101D-01-0.241D-01-0.133D-01 0.127D+00
 Coeff-Com:  0.922D+00
 Coeff:      0.113D-02-0.266D-02-0.101D-01-0.241D-01-0.133D-01 0.127D+00
 Coeff:      0.922D+00
 Gap=     0.367 Goal=   None    Shift=    0.000
 RMSDP=4.27D-06 MaxDP=1.27D-04 DE=-5.70D-06 OVMax= 3.89D-04

 Cycle   8  Pass 1  IDiag  1:
 RMSU=  2.42D-06    CP:  9.39D-01  1.01D+00  1.01D+00  7.68D-01  1.02D+00
                    CP:  1.07D+00  1.09D+00
 E= -307.676359347555     Delta-E=       -0.000000529382 Rises=F Damp=F
 DIIS: error= 1.29D-05 at cycle   8 NSaved=   8.
 NSaved= 8 IEnMin= 8 EnMin= -307.676359347555     IErMin= 8 ErrMin= 1.29D-05
 ErrMax= 1.29D-05  0.00D+00 EMaxC= 1.00D-01 BMatC= 7.18D-08 BMatP= 4.06D-07
 IDIUse=1 WtCom= 1.00D+00 WtEn= 0.00D+00
 Coeff-Com:  0.436D-03-0.803D-03-0.445D-02-0.131D-01-0.299D-01-0.176D-01
 Coeff-Com:  0.332D+00 0.734D+00
 Coeff:      0.436D-03-0.803D-03-0.445D-02-0.131D-01-0.299D-01-0.176D-01
 Coeff:      0.332D+00 0.734D+00
 Gap=     0.367 Goal=   None    Shift=    0.000
 RMSDP=1.10D-06 MaxDP=3.22D-05 DE=-5.29D-07 OVMax= 9.13D-05

 Cycle   9  Pass 1  IDiag  1:
 RMSU=  7.94D-07    CP:  9.39D-01  1.01D+00  1.01D+00  7.67D-01  1.03D+00
                    CP:  1.08D+00  1.16D+00  1.04D+00
 E= -307.676359425673     Delta-E=       -0.000000078118 Rises=F Damp=F
 DIIS: error= 4.56D-06 at cycle   9 NSaved=   9.
 NSaved= 9 IEnMin= 9 EnMin= -307.676359425673     IErMin= 9 ErrMin= 4.56D-06
 ErrMax= 4.56D-06  0.00D+00 EMaxC= 1.00D-01 BMatC= 3.66D-09 BMatP= 7.18D-08
 IDIUse=1 WtCom= 1.00D+00 WtEn= 0.00D+00
 Coeff-Com: -0.766D-04 0.189D-03 0.878D-03 0.119D-02-0.147D-02-0.154D-01
 Coeff-Com: -0.664D-01 0.668D-01 0.101D+01
 Coeff:     -0.766D-04 0.189D-03 0.878D-03 0.119D-02-0.147D-02-0.154D-01
 Coeff:     -0.664D-01 0.668D-01 0.101D+01
 Gap=     0.367 Goal=   None    Shift=    0.000
 RMSDP=4.11D-07 MaxDP=1.61D-05 DE=-7.81D-08 OVMax= 4.17D-05

 Cycle  10  Pass 1  IDiag  1:
 RMSU=  2.09D-07    CP:  9.39D-01  1.01D+00  1.01D+00  7.66D-01  1.03D+00
                    CP:  1.07D+00  1.17D+00  1.13D+00  1.17D+00
 E= -307.676359431256     Delta-E=       -0.000000005583 Rises=F Damp=F
 DIIS: error= 5.83D-07 at cycle  10 NSaved=  10.
 NSaved=10 IEnMin=10 EnMin= -307.676359431256     IErMin=10 ErrMin= 5.83D-07
 ErrMax= 5.83D-07  0.00D+00 EMaxC= 1.00D-01 BMatC= 1.38D-10 BMatP= 3.66D-09
 IDIUse=1 WtCom= 1.00D+00 WtEn= 0.00D+00
 Coeff-Com: -0.277D-04 0.598D-04 0.341D-03 0.765D-03 0.101D-02-0.948D-03
 Coeff-Com: -0.253D-01-0.295D-01 0.148D+00 0.906D+00
 Coeff:     -0.277D-04 0.598D-04 0.341D-03 0.765D-03 0.101D-02-0.948D-03
 Coeff:     -0.253D-01-0.295D-01 0.148D+00 0.906D+00
 Gap=     0.367 Goal=   None    Shift=    0.000
 RMSDP=8.43D-08 MaxDP=3.97D-06 DE=-5.58D-09 OVMax= 7.58D-06

 Cycle  11  Pass 1  IDiag  1:
 RMSU=  4.02D-08    CP:  9.39D-01  1.01D+00  1.01D+00  7.66D-01  1.03D+00
                    CP:  1.07D+00  1.17D+00  1.15D+00  1.22D+00  1.07D+00
 E= -307.676359431437     Delta-E=       -0.000000000181 Rises=F Damp=F
 DIIS: error= 2.56D-07 at cycle  11 NSaved=  11.
 NSaved=11 IEnMin=11 EnMin= -307.676359431437     IErMin=11 ErrMin= 2.56D-07
 ErrMax= 2.56D-07  0.00D+00 EMaxC= 1.00D-01 BMatC= 2.23D-11 BMatP= 1.38D-10
 IDIUse=1 WtCom= 1.00D+00 WtEn= 0.00D+00
 Coeff-Com: -0.381D-05 0.638D-05 0.696D-04 0.188D-03 0.442D-03 0.609D-03
 Coeff-Com: -0.439D-02-0.145D-01-0.162D-01 0.291D+00 0.742D+00
 Coeff:     -0.381D-05 0.638D-05 0.696D-04 0.188D-03 0.442D-03 0.609D-03
 Coeff:     -0.439D-02-0.145D-01-0.162D-01 0.291D+00 0.742D+00
 Gap=     0.367 Goal=   None    Shift=    0.000
 RMSDP=2.02D-08 MaxDP=9.58D-07 DE=-1.81D-10 OVMax= 1.65D-06

 Cycle  12  Pass 1  IDiag  1:
 RMSU=  1.44D-08    CP:  9.39D-01  1.01D+00  1.01D+00  7.66D-01  1.03D+00
                    CP:  1.07D+00  1.17D+00  1.15D+00  1.23D+00  1.13D+00
                    CP:  1.01D+00
 E= -307.676359431460     Delta-E=       -0.000000000023 Rises=F Damp=F
 DIIS: error= 7.65D-08 at cycle  12 NSaved=  12.
 NSaved=12 IEnMin=12 EnMin= -307.676359431460     IErMin=12 ErrMin= 7.65D-08
 ErrMax= 7.65D-08  0.00D+00 EMaxC= 1.00D-01 BMatC= 1.92D-12 BMatP= 2.23D-11
 IDIUse=1 WtCom= 1.00D+00 WtEn= 0.00D+00
 Coeff-Com:  0.197D-05-0.427D-05-0.132D-04-0.283D-04 0.222D-04 0.207D-03
 Coeff-Com:  0.137D-02-0.965D-03-0.201D-01-0.164D-01 0.221D+00 0.815D+00
 Coeff:      0.197D-05-0.427D-05-0.132D-04-0.283D-04 0.222D-04 0.207D-03
 Coeff:      0.137D-02-0.965D-03-0.201D-01-0.164D-01 0.221D+00 0.815D+00
 Gap=     0.367 Goal=   None    Shift=    0.000
 RMSDP=6.15D-09 MaxDP=2.25D-07 DE=-2.32D-11 OVMax= 3.72D-07

 SCF Done:  E(RM062X) =  -307.676359431     A.U. after   12 cycles
            NFock= 12  Conv=0.61D-08     -V/T= 2.0036
 KE= 3.065735853387D+02 PE=-1.212779262163D+03 EE= 3.520159409488D+02
 Leave Link  502 at Mon Mar 11 15:47:01 2019, MaxMem=   671088640 cpu:            1084.2 elap:              54.3
 (Enter /shared/centos7/gaussian/g16/l801.exe)
 DoSCS=F DFT=T ScalE2(SS,OS)=  1.000000  1.000000
 Range of M.O.s used for correlation:     1   276
 NBasis=   276 NAE=    24 NBE=    24 NFC=     0 NFV=     0
 NROrb=    276 NOA=    24 NOB=    24 NVA=   252 NVB=   252

 **** Warning!!: The largest alpha MO coefficient is  0.57774381D+02

 Leave Link  801 at Mon Mar 11 15:47:01 2019, MaxMem=   671088640 cpu:               0.5 elap:               0.0
 (Enter /shared/centos7/gaussian/g16/l1101.exe)
 Using compressed storage, NAtomX=    14.
 Will process     15 centers per pass.
 Leave Link 1101 at Mon Mar 11 15:47:01 2019, MaxMem=   671088640 cpu:               9.1 elap:               0.5
 (Enter /shared/centos7/gaussian/g16/l1102.exe)
 Symmetrizing basis deriv contribution to polar:
 IMax=3 JMax=2 DiffMx= 0.00D+00
 Leave Link 1102 at Mon Mar 11 15:47:02 2019, MaxMem=   671088640 cpu:               0.7 elap:               0.1
 (Enter /shared/centos7/gaussian/g16/l1110.exe)
 Forming Gx(P) for the SCF density, NAtomX=    14.
 Integral derivatives from FoFJK, PRISM(SPDF).
 Do as many integral derivatives as possible in FoFJK.
 G2DrvN: MDV=     671087496.
 G2DrvN: will do    15 centers at a time, making    1 passes.
 Calling FoFCou, ICntrl=  3107 FMM=F I1Cent=   0 AccDes= 0.00D+00.
 FoFJK:  IHMeth= 1 ICntrl=    3107 DoSepK=F KAlg= 0 I1Cent=           0 FoldK=F
 IRaf=         0 NMat=       1 IRICut=       1 DoRegI=T DoRafI=F ISym2E= 0 IDoP0=0 IntGTp=1.
 FoFCou: FMM=F IPFlag=           0 FMFlag=      100000 FMFlg1=           0
         NFxFlg=           0 DoJE=F BraDBF=F KetDBF=F FulRan=T
         wScrn=  0.000000 ICntrl=      3107 IOpCl=  0 I1Cent=           0 NGrid=           0
         NMat0=    1 NMatS0=      1 NMatT0=    0 NMatD0=    1 NMtDS0=    0 NMtDT0=    0
 Symmetry not used in FoFCou.
 End of G2Drv F.D. properties file   721 does not exist.
 End of G2Drv F.D. properties file   722 does not exist.
 End of G2Drv F.D. properties file   788 does not exist.
 Leave Link 1110 at Mon Mar 11 15:48:43 2019, MaxMem=   671088640 cpu:            2030.4 elap:             101.6
 (Enter /shared/centos7/gaussian/g16/l1002.exe)
 Minotr:  Closed shell wavefunction.
          IDoAtm=11111111111111
          Direct CPHF calculation.
          Differentiating once with respect to nuclear coordinates.
          Requested convergence is 1.0D-08 RMS, and 1.0D-07 maximum.
          Secondary convergence is 1.0D-12 RMS, and 1.0D-12 maximum.
          NewPWx=T KeepS1=F KeepF1=F KeepIn=T MapXYZ=F SortEE=F KeepMc=T.
         4271 words used for storage of precomputed grid.
 Two-electron integrals replicated using symmetry.
          MDV=     671088640 using IRadAn=       1.
          Solving linear equations simultaneously, MaxMat=     380.
 FoF2E skips out because all densities are zero.
 CalDSu exits because no D1Ps are significant.
 FoFJK:  IHMeth= 1 ICntrl=       0 DoSepK=F KAlg= 0 I1Cent=           0 FoldK=F
 IRaf= 940000000 NMat=      42 IRICut=     105 DoRegI=T DoRafI=T ISym2E= 2 IDoP0=3 IntGTp=3.
 FoFCou: FMM=F IPFlag=           0 FMFlag=      100000 FMFlg1=           0
         NFxFlg=           0 DoJE=F BraDBF=F KetDBF=F FulRan=T
         wScrn=  0.000000 ICntrl=         0 IOpCl=  0 I1Cent=           0 NGrid=           0
         NMat0=   42 NMatS0=     42 NMatT0=    0 NMatD0=   42 NMtDS0=    0 NMtDT0=    0
 Integrals replicated using symmetry in FoFCou.
 Raff kept on since  92.59% of shell-pairs survive, threshold=   0.20 IRatSp=93.
          There are    45 degrees of freedom in the 1st order CPHF.  IDoFFX=6 NUNeed=     0.
     39 vectors produced by pass  0 Test12= 1.34D-14 2.22D-09 XBig12= 7.91D-02 6.87D-02.
 AX will form    39 AO Fock derivatives at one time.
     39 vectors produced by pass  1 Test12= 1.34D-14 2.22D-09 XBig12= 8.13D-03 3.44D-02.
     39 vectors produced by pass  2 Test12= 1.34D-14 2.22D-09 XBig12= 2.21D-04 2.77D-03.
     39 vectors produced by pass  3 Test12= 1.34D-14 2.22D-09 XBig12= 1.85D-06 2.72D-04.
     39 vectors produced by pass  4 Test12= 1.34D-14 2.22D-09 XBig12= 1.63D-08 1.68D-05.
     39 vectors produced by pass  5 Test12= 1.34D-14 2.22D-09 XBig12= 9.28D-11 1.16D-06.
     23 vectors produced by pass  6 Test12= 1.34D-14 2.22D-09 XBig12= 3.50D-13 7.98D-08.
      4 vectors produced by pass  7 Test12= 1.34D-14 2.22D-09 XBig12= 1.46D-15 5.22D-09.
 InvSVY:  IOpt=1 It=  1 EMax= 1.67D-15
 Solved reduced A of dimension   261 with    39 vectors.
 End of Minotr F.D. properties file   721 does not exist.
 End of Minotr F.D. properties file   722 does not exist.
 End of Minotr F.D. properties file   788 does not exist.
 Leave Link 1002 at Mon Mar 11 15:51:12 2019, MaxMem=   671088640 cpu:            2968.5 elap:             148.5
 (Enter /shared/centos7/gaussian/g16/l601.exe)
 Copying SCF densities to generalized density rwf, IOpCl= 0 IROHF=0.

 **********************************************************************

            Population analysis using the SCF density.

 **********************************************************************

 Orbital symmetries:
       Occupied  (A) (A) (A) (A) (A) (A) (A) (A) (A) (A) (A) (A)
                 (A) (A) (A) (A) (A) (A) (A) (A) (A) (A) (A) (A)
       Virtual   (A) (A) (A) (A) (A) (A) (A) (A) (A) (A) (A) (A)
                 (A) (A) (A) (A) (A) (A) (A) (A) (A) (A) (A) (A)
                 (A) (A) (A) (A) (A) (A) (A) (A) (A) (A) (A) (A)
                 (A) (A) (A) (A) (A) (A) (A) (A) (A) (A) (A) (A)
                 (A) (A) (A) (A) (A) (A) (A) (A) (A) (A) (A) (A)
                 (A) (A) (A) (A) (A) (A) (A) (A) (A) (A) (A) (A)
                 (A) (A) (A) (A) (A) (A) (A) (A) (A) (A) (A) (A)
                 (A) (A) (A) (A) (A) (A) (A) (A) (A) (A) (A) (A)
                 (A) (A) (A) (A) (A) (A) (A) (A) (A) (A) (A) (A)
                 (A) (A) (A) (A) (A) (A) (A) (A) (A) (A) (A) (A)
                 (A) (A) (A) (A) (A) (A) (A) (A) (A) (A) (A) (A)
                 (A) (A) (A) (A) (A) (A) (A) (A) (A) (A) (A) (A)
                 (A) (A) (A) (A) (A) (A) (A) (A) (A) (A) (A) (A)
                 (A) (A) (A) (A) (A) (A) (A) (A) (A) (A) (A) (A)
                 (A) (A) (A) (A) (A) (A) (A) (A) (A) (A) (A) (A)
                 (A) (A) (A) (A) (A) (A) (A) (A) (A) (A) (A) (A)
                 (A) (A) (A) (A) (A) (A) (A) (A) (A) (A) (A) (A)
                 (A) (A) (A) (A) (A) (A) (A) (A) (A) (A) (A) (A)
                 (A) (A) (A) (A) (A) (A) (A) (A) (A) (A) (A) (A)
                 (A) (A) (A) (A) (A) (A) (A) (A) (A) (A) (A) (A)
                 (A) (A) (A) (A) (A) (A) (A) (A) (A) (A) (A) (A)
 The electronic state is 1-A.
 Alpha  occ. eigenvalues --  -19.66864 -19.61279 -10.66806 -10.58922 -10.55063
 Alpha  occ. eigenvalues --  -10.52800  -1.23856  -1.14353  -0.89349  -0.82387
 Alpha  occ. eigenvalues --   -0.73252  -0.64607  -0.58973  -0.58005  -0.56227
 Alpha  occ. eigenvalues --   -0.52482  -0.50589  -0.46018  -0.44640  -0.44048
 Alpha  occ. eigenvalues --   -0.42653  -0.41442  -0.37843  -0.35594
 Alpha virt. eigenvalues --    0.01131   0.02431   0.03677   0.03960   0.05005
 Alpha virt. eigenvalues --    0.05090   0.05753   0.06577   0.08384   0.08734
 Alpha virt. eigenvalues --    0.09016   0.09734   0.10542   0.12387   0.14286
 Alpha virt. eigenvalues --    0.15262   0.17996   0.19119   0.20012   0.20068
 Alpha virt. eigenvalues --    0.21602   0.22426   0.23004   0.23324   0.24349
 Alpha virt. eigenvalues --    0.26440   0.27718   0.28357   0.28444   0.29376
 Alpha virt. eigenvalues --    0.30486   0.32095   0.33755   0.34550   0.36719
 Alpha virt. eigenvalues --    0.38665   0.39658   0.41468   0.44371   0.47140
 Alpha virt. eigenvalues --    0.47821   0.49382   0.50520   0.51628   0.53836
 Alpha virt. eigenvalues --    0.54465   0.55500   0.56197   0.56570   0.57699
 Alpha virt. eigenvalues --    0.61099   0.61349   0.62389   0.63663   0.66426
 Alpha virt. eigenvalues --    0.67341   0.68335   0.70968   0.71670   0.75389
 Alpha virt. eigenvalues --    0.76859   0.78700   0.80793   0.84058   0.84607
 Alpha virt. eigenvalues --    0.87199   0.89469   0.90646   0.92160   0.92744
 Alpha virt. eigenvalues --    0.98539   1.01188   1.02647   1.05900   1.06009
 Alpha virt. eigenvalues --    1.09543   1.10682   1.12093   1.12929   1.13628
 Alpha virt. eigenvalues --    1.16473   1.17512   1.17626   1.18613   1.21358
 Alpha virt. eigenvalues --    1.22797   1.23642   1.24525   1.24526   1.24705
 Alpha virt. eigenvalues --    1.28861   1.30112   1.32922   1.34374   1.35143
 Alpha virt. eigenvalues --    1.39603   1.41985   1.43102   1.43795   1.45847
 Alpha virt. eigenvalues --    1.46727   1.47133   1.49427   1.53067   1.55160
 Alpha virt. eigenvalues --    1.58088   1.59775   1.60736   1.63247   1.65487
 Alpha virt. eigenvalues --    1.67533   1.70031   1.72868   1.77335   1.83305
 Alpha virt. eigenvalues --    1.85140   1.93470   2.06418   2.09906   2.12304
 Alpha virt. eigenvalues --    2.27991   2.35032   2.39289   2.40186   2.49282
 Alpha virt. eigenvalues --    2.52655   2.58107   2.59919   2.66152   2.67914
 Alpha virt. eigenvalues --    2.74598   2.75487   2.79974   2.81265   2.83996
 Alpha virt. eigenvalues --    2.84068   2.84572   2.94351   2.96122   2.98581
 Alpha virt. eigenvalues --    3.00951   3.02277   3.03394   3.07775   3.10533
 Alpha virt. eigenvalues --    3.11399   3.13086   3.13791   3.15341   3.18304
 Alpha virt. eigenvalues --    3.19895   3.24957   3.26040   3.26850   3.28919
 Alpha virt. eigenvalues --    3.31999   3.34992   3.40342   3.40652   3.43068
 Alpha virt. eigenvalues --    3.45079   3.49525   3.51629   3.51718   3.52308
 Alpha virt. eigenvalues --    3.52966   3.56317   3.57860   3.61177   3.61304
 Alpha virt. eigenvalues --    3.67458   3.67958   3.72392   3.77529   3.82849
 Alpha virt. eigenvalues --    3.83163   3.86961   3.87392   3.91245   3.94899
 Alpha virt. eigenvalues --    3.95484   3.97410   4.00604   4.01696   4.02026
 Alpha virt. eigenvalues --    4.06040   4.12702   4.13914   4.17716   4.18664
 Alpha virt. eigenvalues --    4.26510   4.26859   4.28828   4.30996   4.31017
 Alpha virt. eigenvalues --    4.32104   4.32633   4.34826   4.36443   4.43096
 Alpha virt. eigenvalues --    4.48241   4.49804   4.51361   4.54089   4.55665
 Alpha virt. eigenvalues --    4.60858   4.72684   4.91931   4.93145   5.08308
 Alpha virt. eigenvalues --    5.11823   5.14951   5.20612   5.20814   5.23681
 Alpha virt. eigenvalues --    5.27478   5.37357   5.40972   5.45126   5.50688
 Alpha virt. eigenvalues --    5.53213   5.56706   5.57334   5.58222   5.65217
 Alpha virt. eigenvalues --    5.67244   5.69380   5.74852   5.80629   6.00291
 Alpha virt. eigenvalues --    6.09630   6.38784   6.45962   6.69865   6.83660
 Alpha virt. eigenvalues --    6.96610   7.06542   7.11743   7.17799   7.19469
 Alpha virt. eigenvalues --    7.25786   7.31779   7.55376   7.67683   7.77757
 Alpha virt. eigenvalues --    7.83484  24.34337  24.43852  24.46702  24.86032
 Alpha virt. eigenvalues --   50.17733  50.31651
          Condensed to atoms (all electrons):
               1          2          3          4          5          6
     1  O    8.214803  -0.084625  -0.218002   0.008870   0.151226   0.216932
     2  O   -0.084625   8.213365   0.001396  -0.029710  -0.035571   0.348858
     3  C   -0.218002   0.001396   5.666629   0.094555  -0.061846  -0.133551
     4  C    0.008870  -0.029710   0.094555   5.176204  -0.013362   0.077215
     5  C    0.151226  -0.035571  -0.061846  -0.013362   4.967609  -0.107665
     6  C    0.216932   0.348858  -0.133551   0.077215  -0.107665   5.443027
     7  H    0.002455   0.000622   0.450856  -0.038743   0.001431  -0.048700
     8  H    0.002455   0.000623   0.450857  -0.038743   0.001431  -0.048700
     9  H    0.000084  -0.001578  -0.024636   0.412767  -0.000210  -0.006992
    10  H   -0.000608   0.001223  -0.078179   0.424389   0.000452   0.038413
    11  H    0.000084  -0.001578  -0.024636   0.412767  -0.000210  -0.006992
    12  H   -0.059014   0.003701   0.002346   0.000790   0.419178   0.017895
    13  H   -0.035578  -0.004396  -0.001458  -0.000948   0.431123   0.001857
    14  H   -0.035578  -0.004396  -0.001458  -0.000948   0.431123   0.001857
               7          8          9         10         11         12
     1  O    0.002455   0.002455   0.000084  -0.000608   0.000084  -0.059014
     2  O    0.000622   0.000623  -0.001578   0.001223  -0.001578   0.003701
     3  C    0.450856   0.450857  -0.024636  -0.078179  -0.024636   0.002346
     4  C   -0.038743  -0.038743   0.412767   0.424389   0.412767   0.000790
     5  C    0.001431   0.001431  -0.000210   0.000452  -0.000210   0.419178
     6  C   -0.048700  -0.048700  -0.006992   0.038413  -0.006992   0.017895
     7  H    0.517207  -0.037196   0.005410  -0.003517  -0.006671   0.000009
     8  H   -0.037196   0.517206  -0.006671  -0.003517   0.005409   0.000009
     9  H    0.005410  -0.006671   0.528099  -0.025290  -0.031323  -0.000002
    10  H   -0.003517  -0.003517  -0.025290   0.538139  -0.025290  -0.000000
    11  H   -0.006671   0.005409  -0.031323  -0.025290   0.528099  -0.000002
    12  H    0.000009   0.000009  -0.000002  -0.000000  -0.000002   0.533252
    13  H    0.000137  -0.000094   0.000012  -0.000001  -0.000006  -0.025077
    14  H   -0.000094   0.000137  -0.000006  -0.000001   0.000012  -0.025077
              13         14
     1  O   -0.035578  -0.035578
     2  O   -0.004396  -0.004396
     3  C   -0.001458  -0.001458
     4  C   -0.000948  -0.000948
     5  C    0.431123   0.431123
     6  C    0.001857   0.001857
     7  H    0.000137  -0.000094
     8  H   -0.000094   0.000137
     9  H    0.000012  -0.000006
    10  H   -0.000001  -0.000001
    11  H   -0.000006   0.000012
    12  H   -0.025077  -0.025077
    13  H    0.533186  -0.037521
    14  H   -0.037521   0.533186
 Mulliken charges:
               1
     1  O   -0.163503
     2  O   -0.407934
     3  C   -0.122874
     4  C   -0.485104
     5  C   -0.184709
     6  C    0.206546
     7  H    0.156796
     8  H    0.156796
     9  H    0.150337
    10  H    0.133789
    11  H    0.150337
    12  H    0.131994
    13  H    0.138764
    14  H    0.138764
 Sum of Mulliken charges =  -0.00000
 Mulliken charges with hydrogens summed into heavy atoms:
               1
     1  O   -0.163503
     2  O   -0.407934
     3  C    0.190718
     4  C   -0.050640
     5  C    0.224814
     6  C    0.206546
 APT charges:
               1
     1  O   -0.038120
     2  O   -0.401935
     3  C   -0.607961
     4  C   -1.314565
     5  C   -1.242520
     6  C    0.318046
     7  H    0.381584
     8  H    0.381585
     9  H    0.327564
    10  H    0.579113
    11  H    0.327564
    12  H    0.576269
    13  H    0.356688
    14  H    0.356688
 Sum of APT charges =  -0.00000
 APT charges with hydrogens summed into heavy atoms:
               1
     1  O   -0.038120
     2  O   -0.401935
     3  C    0.155208
     4  C   -0.080325
     5  C    0.047126
     6  C    0.318046
 Electronic spatial extent (au):  <R**2>=            688.1342
 Charge=             -0.0000 electrons
 Dipole moment (field-independent basis, Debye):
    X=              0.3635    Y=             -1.6693    Z=             -0.0000  Tot=              1.7084
 Quadrupole moment (field-independent basis, Debye-Ang):
   XX=            -30.8399   YY=            -41.3455   ZZ=            -35.8976
   XY=              1.4919   XZ=              0.0000   YZ=              0.0000
 Traceless Quadrupole moment (field-independent basis, Debye-Ang):
   XX=              5.1878   YY=             -5.3179   ZZ=              0.1301
   XY=              1.4919   XZ=              0.0000   YZ=              0.0000
 Octapole moment (field-independent basis, Debye-Ang**2):
  XXX=             19.2490  YYY=             -3.9887  ZZZ=             -0.0000  XYY=              0.1619
  XXY=             -0.2952  XXZ=             -0.0000  XZZ=              1.9761  YZZ=              0.8850
  YYZ=              0.0000  XYZ=              0.0000
 Hexadecapole moment (field-independent basis, Debye-Ang**3):
 XXXX=           -660.1652 YYYY=           -165.1712 ZZZZ=            -54.7744 XXXY=             -2.8549
 XXXZ=              0.0001 YYYX=             -1.1329 YYYZ=             -0.0000 ZZZX=              0.0000
 ZZZY=              0.0000 XXYY=           -139.3929 XXZZ=           -125.5854 YYZZ=            -33.0505
 XXYZ=              0.0000 YYXZ=              0.0000 ZZXY=              0.7654
 N-N= 2.465133764439D+02 E-N=-1.212779269467D+03  KE= 3.065735853387D+02
  Exact polarizability:   0.000   0.000   0.000   0.000   0.000   0.000
 Approx polarizability:  63.729  -1.129  68.878   0.000   0.000  55.052
 No NMR shielding tensors so no spin-rotation constants.
 Leave Link  601 at Mon Mar 11 15:51:12 2019, MaxMem=   671088640 cpu:               6.1 elap:               0.4
 (Enter /shared/centos7/gaussian/g16/l701.exe)
 SCFChk:  SCF convergence  6.15D-09 required  1.00D-08
 ... and contract with generalized density number  0.
 Compute integral second derivatives.
 Entering OneElI...
 Calculate overlap and kinetic energy integrals
    NBasis = 306  MinDer = 2  MaxDer = 2
 Requested accuracy = 0.1000D-12
 PrmmSu-InSpLW:  IPartL=    0 NPrtUS=   20 NPrtUL=    1 DoSpLW=F IThBeg=    0 IThEnd=   19 NThAct=   20.
 PrsmSu:  NPrtUS=  20 ThrOK=T IAlg=1 NPAlg=1 LenDen=           0 ISkipM=0 DoSpLW=F IThBeg=    0 IThEnd=   19.
 Prism:   IPart=     0 DynPar=F LinDyn=F Incr=           1.
 PRISM was handed    33446609 working-precision words and  3878 shell-pairs
 PRISM was handed    33446609 working-precision words and  3878 shell-pairs
 PRISM was handed    33446609 working-precision words and  3878 shell-pairs
 PRISM was handed    33446609 working-precision words and  3878 shell-pairs
 PRISM was handed    33446609 working-precision words and  3878 shell-pairs
 PRISM was handed    33446609 working-precision words and  3878 shell-pairs
 PRISM was handed    33446609 working-precision words and  3878 shell-pairs
 PRISM was handed    33446609 working-precision words and  3878 shell-pairs
 PRISM was handed    33446609 working-precision words and  3878 shell-pairs
 PRISM was handed    33446609 working-precision words and  3878 shell-pairs
 PRISM was handed    33446609 working-precision words and  3878 shell-pairs
 PRISM was handed    33446609 working-precision words and  3878 shell-pairs
 PRISM was handed    33446609 working-precision words and  3878 shell-pairs
 PRISM was handed    33446609 working-precision words and  3878 shell-pairs
 PRISM was handed    33446609 working-precision words and  3878 shell-pairs
 PRISM was handed    33446609 working-precision words and  3878 shell-pairs
 PRISM was handed    33446609 working-precision words and  3878 shell-pairs
 PRISM was handed    33446609 working-precision words and  3878 shell-pairs
 PRISM was handed    33446609 working-precision words and  3878 shell-pairs
 PRISM was handed    33446609 working-precision words and  3878 shell-pairs
 IPart=  3 NShTot=         217 NBatch=          50 AvBLen=         4.3
 IPart=  2 NShTot=         221 NBatch=          54 AvBLen=         4.1
 IPart=  1 NShTot=         225 NBatch=          57 AvBLen=         3.9
 IPart= 15 NShTot=         177 NBatch=          30 AvBLen=         5.9
 IPart= 10 NShTot=         186 NBatch=          32 AvBLen=         5.8
 IPart=  4 NShTot=         210 NBatch=          46 AvBLen=         4.6
 IPart=  0 NShTot=         229 NBatch=          60 AvBLen=         3.8
 IPart=  7 NShTot=         200 NBatch=          39 AvBLen=         5.1
 IPart=  5 NShTot=         205 NBatch=          43 AvBLen=         4.8
 IPart=  9 NShTot=         191 NBatch=          35 AvBLen=         5.5
 IPart= 14 NShTot=         178 NBatch=          31 AvBLen=         5.7
 IPart=  6 NShTot=         201 NBatch=          40 AvBLen=         5.0
 IPart= 13 NShTot=         182 NBatch=          32 AvBLen=         5.7
 IPart=  8 NShTot=         196 NBatch=          36 AvBLen=         5.4
 IPart= 12 NShTot=         184 NBatch=          32 AvBLen=         5.8
 IPart= 11 NShTot=         186 NBatch=          32 AvBLen=         5.8
 IPart= 17 NShTot=         174 NBatch=          30 AvBLen=         5.8
 IPart= 16 NShTot=         174 NBatch=          30 AvBLen=         5.8
 IPart= 19 NShTot=         170 NBatch=          30 AvBLen=         5.7
 IPart= 18 NShTot=         172 NBatch=          30 AvBLen=         5.7
 PrSmSu:  NxtVal=             21.
 Entering OneElI...
 Calculate potential energy integrals
    NBasis = 306  MinDer = 2  MaxDer = 2
 Requested accuracy = 0.1000D-12
 PrmmSu-InSpLW:  IPartL=    0 NPrtUS=   20 NPrtUL=    1 DoSpLW=F IThBeg=    0 IThEnd=   19 NThAct=   20.
 PrsmSu:  NPrtUS=  20 ThrOK=T IAlg=1 NPAlg=1 LenDen=           0 ISkipM=0 DoSpLW=F IThBeg=    0 IThEnd=   19.
 Prism:   IPart=     0 DynPar=F LinDyn=F Incr=          25.
 PRISM was handed    33462634 working-precision words and  3597 shell-pairs
 PRISM was handed    33462634 working-precision words and  3597 shell-pairs
 PRISM was handed    33462634 working-precision words and  3597 shell-pairs
 PRISM was handed    33462634 working-precision words and  3597 shell-pairs
 PRISM was handed    33462634 working-precision words and  3597 shell-pairs
 PRISM was handed    33462634 working-precision words and  3597 shell-pairs
 PRISM was handed    33462634 working-precision words and  3597 shell-pairs
 PRISM was handed    33462634 working-precision words and  3597 shell-pairs
 PRISM was handed    33462634 working-precision words and  3597 shell-pairs
 PRISM was handed    33462634 working-precision words and  3597 shell-pairs
 PRISM was handed    33462634 working-precision words and  3597 shell-pairs
 PRISM was handed    33462634 working-precision words and  3597 shell-pairs
 PRISM was handed    33462634 working-precision words and  3597 shell-pairs
 PRISM was handed    33462634 working-precision words and  3597 shell-pairs
 PRISM was handed    33462634 working-precision words and  3597 shell-pairs
 PRISM was handed    33462634 working-precision words and  3597 shell-pairs
 PRISM was handed    33462634 working-precision words and  3597 shell-pairs
 PRISM was handed    33462634 working-precision words and  3597 shell-pairs
 PRISM was handed    33462634 working-precision words and  3597 shell-pairs
 PRISM was handed    33462634 working-precision words and  3597 shell-pairs
 IPart= 15 NShTot=        2310 NBatch=         165 AvBLen=        14.0
 IPart=  3 NShTot=        2786 NBatch=         199 AvBLen=        14.0
 IPart=  2 NShTot=        2870 NBatch=         205 AvBLen=        14.0
 IPart=  1 NShTot=        2954 NBatch=         211 AvBLen=        14.0
 IPart= 10 NShTot=        2366 NBatch=         169 AvBLen=        14.0
 IPart=  5 NShTot=        2688 NBatch=         192 AvBLen=        14.0
 IPart= 13 NShTot=        2324 NBatch=         166 AvBLen=        14.0
 IPart= 14 NShTot=        2324 NBatch=         166 AvBLen=        14.0
 IPart=  4 NShTot=        2716 NBatch=         194 AvBLen=        14.0
 IPart= 11 NShTot=        2366 NBatch=         169 AvBLen=        14.0
 IPart= 16 NShTot=        2296 NBatch=         164 AvBLen=        14.0
 IPart= 18 NShTot=        2296 NBatch=         164 AvBLen=        14.0
 IPart=  0 NShTot=        3038 NBatch=         217 AvBLen=        14.0
 IPart=  6 NShTot=        2618 NBatch=         187 AvBLen=        14.0
 IPart=  7 NShTot=        2576 NBatch=         184 AvBLen=        14.0
 IPart=  8 NShTot=        2492 NBatch=         178 AvBLen=        14.0
 IPart= 12 NShTot=        2338 NBatch=         167 AvBLen=        14.0
 IPart= 19 NShTot=        2268 NBatch=         162 AvBLen=        14.0
 IPart=  9 NShTot=        2436 NBatch=         174 AvBLen=        14.0
 IPart= 17 NShTot=        2296 NBatch=         164 AvBLen=        14.0
 PrSmSu:  NxtVal=            501.
 Polarizability after L701:
                1             2             3 
      1  0.000000D+00
      2  0.000000D+00  0.000000D+00
      3  0.000000D+00  0.000000D+00  0.000000D+00
 Dipole Derivatives after L701:
                 1             2             3             4             5 
      1   0.327877D+00  0.282015D+00  0.000000D+00 -0.320802D+00  0.128165D-01
      2   0.184903D-01 -0.178395D+00  0.000000D+00 -0.874161D-02 -0.309664D+00
      3   0.000000D+00  0.000000D+00 -0.263842D+00  0.000000D+00  0.000000D+00
                 6             7             8             9            10 
      1   0.000000D+00  0.254060D+00 -0.116146D+01 -0.419216D-05 -0.204085D+01
      2   0.000000D+00 -0.262817D+00 -0.110627D+01  0.000000D+00 -0.930311D-01
      3  -0.575339D+00  0.000000D+00  0.197054D-05 -0.971673D+00  0.000000D+00
                11            12            13            14            15 
      1   0.737554D+00  0.120158D-05 -0.209228D+01 -0.592173D+00  0.112044D-05
      2  -0.871850D+00  0.000000D+00  0.160783D+00 -0.754288D+00  0.000000D+00
      3   0.000000D+00 -0.103100D+01  0.000000D+00  0.000000D+00 -0.880995D+00
                16            17            18            19            20 
      1   0.454930D-01  0.119233D+00  0.000000D+00  0.146985D+00  0.331276D+00
      2   0.189067D+00  0.240022D+00  0.000000D+00  0.546978D-02  0.526868D+00
      3   0.000000D+00  0.000000D+00  0.668623D+00  0.141209D-01  0.243245D+00
                21            22            23            24            25 
      1   0.391206D+00  0.146985D+00  0.331280D+00 -0.391204D+00  0.179411D+00
      2   0.462444D+00  0.546970D-02  0.526873D+00 -0.462444D+00 -0.179032D-01
      3   0.470899D+00 -0.141208D-01 -0.243246D+00  0.470896D+00  0.335647D-02
                26            27            28            29            30 
      1  -0.643835D+00 -0.806914D+00  0.135891D+01  0.826960D+00  0.400474D-05
      2   0.332651D+00  0.272190D+00  0.201599D+00  0.271863D+00  0.000000D+00
      3   0.242829D+00  0.470628D+00  0.000000D+00  0.000000D+00  0.106564D+00
                31            32            33            34            35 
      1   0.179413D+00 -0.643839D+00  0.806910D+00  0.120697D+01 -0.985224D+00
      2  -0.179037D-01  0.332655D+00 -0.272191D+00 -0.255091D+00  0.411163D+00
      3  -0.335593D-02 -0.242829D+00  0.470625D+00  0.000000D+00  0.000000D+00
                36            37            38            39            40 
      1   0.000000D+00  0.303913D+00  0.692698D+00 -0.844313D+00  0.303913D+00
      2   0.000000D+00  0.373044D-01  0.289185D+00 -0.213541D+00  0.373045D-01
      3   0.110680D+00 -0.219263D-01 -0.239593D+00  0.476966D+00  0.219264D-01
                41            42 
      1   0.692701D+00  0.844312D+00
      2   0.289186D+00  0.213541D+00
      3   0.239594D+00  0.476966D+00
 Hessian after L701:
                1             2             3             4             5 
      1  0.141017D+01
      2  0.282294D+01  0.113422D+02
      3 -0.169918D-04  0.969754D-05  0.168158D+02
      4  0.454953D+00 -0.686087D+00  0.000000D+00  0.147084D+02
      5 -0.748323D+00  0.777230D-01  0.000000D+00 -0.425657D+00 -0.644640D+00
      6  0.000000D+00  0.000000D+00  0.123328D+00 -0.209586D-05  0.000000D+00
      7  0.400262D+00  0.280465D+00  0.144223D-05  0.415756D+00  0.752804D+00
      8  0.851839D-01  0.215226D+00  0.000000D+00  0.599965D+00  0.180168D+00
      9  0.000000D+00  0.000000D+00  0.249211D+00  0.000000D+00 -0.124952D-05
     10  0.369346D+00 -0.180787D+00  0.000000D+00  0.355122D+00  0.294460D+00
     11 -0.144916D+00 -0.143608D+00  0.000000D+00  0.361381D+00 -0.744687D-01
     12  0.000000D+00  0.000000D+00 -0.195600D+00  0.000000D+00  0.000000D+00
     13 -0.839790D+00  0.294885D+01  0.000000D+00  0.343282D+00 -0.424419D+00
     14  0.290978D+01 -0.520644D+01  0.000000D+00 -0.523595D+00 -0.168289D-01
     15  0.104801D-05  0.000000D+00 -0.675043D+01  0.000000D+00  0.000000D+00
     16 -0.188091D+01 -0.497810D+01  0.144205D-04 -0.167309D+02  0.542380D+00
     17 -0.487549D+01 -0.642265D+01 -0.936366D-05  0.626228D+00  0.485398D+00
     18  0.152449D-04 -0.978799D-05 -0.107972D+02  0.184369D-05  0.259186D-05
     19  0.903521D-01  0.536193D-01  0.777789D-01 -0.314329D-01  0.349731D-01
     20  0.109794D+00 -0.358270D-01  0.457308D-01  0.437638D-01  0.947823D-01
     21  0.128895D+00  0.415503D-01 -0.113136D-01  0.348763D-01  0.942351D-01
     22  0.903519D-01  0.536195D-01 -0.777782D-01 -0.314329D-01  0.349734D-01
     23  0.109795D+00 -0.358265D-01 -0.457308D-01  0.437642D-01  0.947836D-01
     24 -0.128894D+00 -0.415503D-01 -0.113144D-01 -0.348761D-01 -0.942347D-01
     25  0.288464D-01 -0.183290D-01 -0.944321D-02  0.916973D-01  0.384793D-01
     26 -0.354739D-01 -0.382457D-02  0.809904D-02 -0.885987D-02 -0.591625D-01
     27 -0.352835D-01  0.129037D-01 -0.822519D-02 -0.937590D-01 -0.281311D-01
     28  0.356092D-01  0.796887D-03  0.000000D+00  0.603349D-01  0.574411D-01
     29  0.159462D-01 -0.779535D-02  0.000000D+00  0.426986D-01  0.108853D-01
     30  0.000000D+00  0.000000D+00 -0.105219D-01  0.000000D+00  0.000000D+00
     31  0.288464D-01 -0.183290D-01  0.944313D-02  0.916982D-01  0.384793D-01
     32 -0.354741D-01 -0.382445D-02 -0.809902D-02 -0.886043D-02 -0.591628D-01
     33  0.352833D-01 -0.129036D-01 -0.822527D-02  0.937587D-01  0.281308D-01
     34 -0.826393D-01 -0.113671D+00  0.000000D+00  0.801820D-01 -0.928139D-01
     35 -0.169282D+00  0.137684D+00  0.000000D+00 -0.732618D-01  0.362096D-01
     36  0.000000D+00  0.000000D+00  0.752389D-01  0.000000D+00  0.000000D+00
     37 -0.526993D-01 -0.824924D-01 -0.817395D-01  0.961318D-01 -0.513887D-01
     38 -0.222410D-01  0.434613D-01 -0.156978D+00  0.426012D-02 -0.628433D-01
     39 -0.101352D+00 -0.155652D+00  0.264662D+00 -0.844691D-01  0.356926D-01
     40 -0.526996D-01 -0.824924D-01  0.817395D-01  0.961318D-01 -0.513886D-01
     41 -0.222409D-01  0.434617D-01  0.156979D+00  0.426031D-02 -0.628433D-01
     42  0.101351D+00  0.155652D+00  0.264661D+00  0.844692D-01 -0.356926D-01
                6             7             8             9            10 
      6  0.192961D+02
      7  0.000000D+00  0.113548D+02
      8  0.000000D+00 -0.114758D+01  0.145591D+02
      9 -0.251708D+00  0.931984D-05  0.318998D-05  0.160787D+02
     10  0.000000D+00 -0.214932D+01 -0.210660D+01 -0.678879D-05  0.105793D+02
     11  0.000000D+00 -0.206941D+01 -0.400097D+01  0.494554D-05  0.862662D+00
     12 -0.273488D+00 -0.683701D-05  0.516634D-05 -0.525104D+01  0.000000D+00
     13  0.000000D+00  0.148640D+00  0.439566D-01  0.000000D+00  0.155690D-01
     14  0.000000D+00  0.113219D-01 -0.451598D-01  0.000000D+00 -0.145595D-01
     15 -0.373718D+00  0.000000D+00  0.000000D+00 -0.619699D-01  0.000000D+00
     16  0.191292D-05 -0.174213D+01  0.234521D+01 -0.332854D-05  0.300860D+00
     17  0.161013D-05  0.229952D+01 -0.491361D+01 -0.198369D-05  0.559256D-01
     18 -0.183481D+02 -0.405687D-05 -0.230806D-05 -0.592926D+01  0.000000D+00
     19  0.271455D-01 -0.422972D+01  0.429771D-02 -0.165217D-01  0.144997D-01
     20  0.671532D-01 -0.105410D+00 -0.301936D+01  0.141355D+01  0.214548D-01
     21 -0.622368D-03 -0.137848D+00  0.135569D+01 -0.250221D+01  0.259422D-03
     22 -0.271453D-01 -0.422972D+01  0.429734D-02  0.165219D-01  0.144997D-01
     23 -0.671530D-01 -0.105412D+00 -0.301935D+01 -0.141356D+01  0.214546D-01
     24 -0.623018D-03  0.137848D+00 -0.135570D+01 -0.250223D+01 -0.259323D-03
     25 -0.418927D-01  0.196090D-01  0.791486D-01  0.478165D-01 -0.386407D+01
     26  0.435784D-02  0.157927D-01 -0.265145D-01 -0.133741D-01 -0.366435D-01
     27 -0.210222D-01  0.368866D-02 -0.137225D-01  0.610532D-01 -0.525368D-01
     28  0.000000D+00 -0.968547D-01  0.723467D-02  0.000000D+00 -0.180385D+01
     29  0.000000D+00  0.252347D-01  0.121475D+00  0.000000D+00  0.111521D+01
     30 -0.215316D-01  0.000000D+00  0.000000D+00  0.742393D-01  0.433380D-05
     31  0.418923D-01  0.196093D-01  0.791482D-01 -0.478155D-01 -0.386408D+01
     32 -0.435802D-02  0.157921D-01 -0.265148D-01  0.133733D-01 -0.366459D-01
     33 -0.210229D-01 -0.368801D-02  0.137216D-01  0.610532D-01  0.525395D-01
     34  0.000000D+00  0.367402D-01 -0.970364D-02  0.000000D+00  0.224266D-01
     35  0.000000D+00 -0.195581D-01 -0.468805D-02  0.000000D+00 -0.957084D-02
     36 -0.318913D-01  0.000000D+00  0.000000D+00 -0.130176D-01  0.000000D+00
     37 -0.144208D-01  0.261724D-01  0.772224D-02 -0.635073D-02  0.486282D-02
     38 -0.738216D-02  0.232262D-01 -0.987492D-02 -0.481313D-02  0.682020D-02
     39 -0.378611D-01 -0.267037D-01 -0.183054D-02 -0.640849D-02 -0.973301D-02
     40  0.144210D-01  0.261724D-01  0.772221D-02  0.635065D-02  0.486276D-02
     41  0.738220D-02  0.232262D-01 -0.987491D-02  0.481306D-02  0.682020D-02
     42 -0.378609D-01  0.267037D-01  0.183054D-02 -0.640857D-02  0.973297D-02
               11            12            13            14            15 
     11  0.130931D+02
     12 -0.453369D-05  0.138341D+02
     13 -0.280042D-03  0.000000D+00  0.100475D+02
     14 -0.427747D-01  0.000000D+00 -0.178073D+01  0.142686D+02
     15  0.000000D+00 -0.429882D-01  0.000000D+00 -0.134007D-05  0.157996D+02
     16  0.117494D+00  0.000000D+00  0.548799D+00 -0.948272D-01  0.000000D+00
     17 -0.318375D+00  0.000000D+00 -0.400333D-01 -0.117142D+00  0.000000D+00
     18  0.000000D+00 -0.285505D+00  0.000000D+00  0.000000D+00 -0.107822D-01
     19  0.296628D-01  0.233814D-01  0.181368D-01  0.126999D-01  0.733099D-02
     20  0.209030D-01  0.146002D-01  0.197726D-01 -0.807711D-02  0.752340D-02
     21  0.279142D-01  0.759889D-01  0.131864D-01  0.530409D-02 -0.886717D-02
     22  0.296630D-01 -0.233813D-01  0.181371D-01  0.127001D-01 -0.733099D-02
     23  0.209033D-01 -0.146005D-01  0.197730D-01 -0.807707D-02 -0.752344D-02
     24 -0.279144D-01  0.759887D-01 -0.131864D-01 -0.530415D-02 -0.886734D-02
     25 -0.188200D+00 -0.238991D+00  0.688018D-02 -0.506223D-02 -0.325232D-02
     26 -0.280341D+01  0.128915D+01 -0.480113D-02 -0.150087D-02  0.223160D-02
     27  0.130381D+01 -0.215507D+01 -0.659628D-02  0.636927D-02 -0.335154D-02
     28  0.118380D+01  0.483925D-05  0.130935D-01 -0.124460D-02  0.000000D+00
     29 -0.293845D+01  0.284522D-05  0.372887D-02 -0.638252D-02  0.000000D+00
     30  0.275623D-05 -0.361597D+01  0.000000D+00  0.000000D+00 -0.519040D-02
     31 -0.188204D+00  0.238993D+00  0.688026D-02 -0.506228D-02  0.325232D-02
     32 -0.280340D+01 -0.128916D+01 -0.480119D-02 -0.150083D-02 -0.223160D-02
     33 -0.130382D+01 -0.215509D+01  0.659627D-02 -0.636926D-02 -0.335157D-02
     34 -0.107356D-02  0.000000D+00 -0.226590D+01 -0.135678D+01  0.000000D+00
     35 -0.670553D-02  0.000000D+00 -0.126261D+01 -0.279998D+01  0.000000D+00
     36  0.000000D+00 -0.612507D-02  0.000000D+00  0.000000D+00 -0.387746D+01
     37  0.371364D-02 -0.259391D-02 -0.403059D+01  0.417674D+00 -0.508779D+00
     38 -0.135089D-02 -0.187409D-02  0.240792D+00 -0.300739D+01 -0.135966D+01
     39 -0.556618D-02 -0.259321D-02 -0.302917D+00 -0.139732D+01 -0.232632D+01
     40  0.371364D-02  0.259391D-02 -0.403059D+01  0.417674D+00  0.508778D+00
     41 -0.135087D-02  0.187411D-02  0.240793D+00 -0.300739D+01  0.135966D+01
     42  0.556618D-02 -0.259319D-02  0.302916D+00  0.139732D+01 -0.232633D+01
               16            17            18            19            20 
     16  0.187149D+02
     17  0.205614D+01  0.115616D+02
     18 -0.130883D-04  0.101076D-04  0.354759D+02
     19  0.746111D-01 -0.382757D-01 -0.694272D-01  0.394651D+01
     20  0.124564D-01 -0.257062D-01 -0.670854D-01 -0.106267D+00  0.281618D+01
     21 -0.698471D-02 -0.435946D-01  0.212247D-01 -0.222829D-01 -0.153054D+01
     22  0.746102D-01 -0.382760D-01  0.694271D-01  0.119929D+00  0.117933D-02
     23  0.124564D-01 -0.257063D-01  0.670847D-01  0.117938D-02  0.133774D+00
     24  0.698508D-02  0.435942D-01  0.212249D-01 -0.107131D-01  0.553877D-02
     25  0.616366D-01 -0.850942D-02 -0.177647D-01 -0.835703D-02 -0.313138D-01
     26 -0.336682D-01 -0.155974D-01  0.727594D-02 -0.234764D-01  0.369033D-01
     27 -0.607685D-01  0.169874D-01 -0.650937D-02 -0.234386D-01  0.512975D-01
     28  0.226820D+00  0.313995D-01  0.000000D+00 -0.623965D-02 -0.425757D-02
     29  0.655229D-01 -0.816555D-01  0.000000D+00  0.815486D-02 -0.233811D-02
     30  0.000000D+00  0.000000D+00 -0.773797D-01  0.623267D-02 -0.102934D-02
     31  0.616365D-01 -0.850940D-02  0.177642D-01  0.139938D-02  0.228608D-01
     32 -0.336683D-01 -0.155972D-01 -0.727577D-02  0.175498D-01 -0.155105D-01
     33  0.607678D-01 -0.169873D-01 -0.650973D-02  0.176695D-03 -0.732779D-02
     34  0.171559D+00 -0.612264D-01  0.000000D+00  0.519513D-02  0.638345D-02
     35 -0.865137D-01 -0.507913D-01  0.000000D+00 -0.173322D-02 -0.434280D-02
     36  0.000000D+00  0.000000D+00 -0.616412D-01  0.807129D-03  0.508703D-03
     37  0.592382D-01  0.552836D-03 -0.419648D-01  0.455266D-02  0.631179D-02
     38  0.375560D-01 -0.300689D-01 -0.145835D-01  0.538276D-02  0.489693D-02
     39 -0.891529D-01 -0.193979D-01  0.231717D-02 -0.306462D-02 -0.555126D-02
     40  0.592384D-01  0.553119D-03  0.419652D-01  0.559587D-03  0.327215D-02
     41  0.375563D-01 -0.300689D-01  0.145838D-01  0.223305D-02  0.372810D-02
     42  0.891530D-01  0.193981D-01  0.231735D-02  0.259473D-02  0.562667D-02
               21            22            23            24            25 
     21  0.259157D+01
     22  0.107127D-01  0.394652D+01
     23 -0.553701D-02 -0.106267D+00  0.281616D+01
     24 -0.200670D+00  0.222820D-01  0.153054D+01  0.259160D+01
     25 -0.282766D-01  0.139938D-02  0.228607D-01  0.920766D-03  0.353782D+01
     26  0.491785D-01  0.175497D-01 -0.155104D-01 -0.673721D-02  0.174855D+00
     27  0.262945D-01 -0.176575D-03  0.732767D-02  0.774743D-02  0.337822D+00
     28 -0.544753D-02 -0.623970D-02 -0.425763D-02  0.544749D-02  0.296715D-01
     29 -0.716270D-02  0.815491D-02 -0.233818D-02  0.716268D-02 -0.639534D-01
     30  0.282066D-02 -0.623261D-02  0.102928D-02  0.282074D-02 -0.628771D-01
     31 -0.920618D-03 -0.835698D-02 -0.313140D-01  0.282765D-01  0.878216D-01
     32  0.673702D-02 -0.234765D-01  0.369039D-01 -0.491783D-01 -0.122680D-02
     33  0.774750D-02  0.234384D-01 -0.512974D-01  0.262938D-01  0.166790D-01
     34  0.726722D-02  0.519512D-02  0.638352D-02 -0.726718D-02  0.251887D-02
     35 -0.361091D-02 -0.173322D-02 -0.434284D-02  0.361088D-02 -0.173562D-02
     36 -0.693663D-03 -0.807121D-03 -0.508709D-03 -0.693667D-03 -0.224585D-03
     37  0.342950D-02  0.559581D-03  0.327218D-02 -0.313453D-02  0.222591D-02
     38  0.478430D-02  0.223304D-02  0.372813D-02 -0.504650D-02  0.142028D-02
     39 -0.637328D-02 -0.259473D-02 -0.562673D-02  0.509554D-02 -0.279356D-02
     40  0.313455D-02  0.455263D-02  0.631181D-02 -0.342947D-02  0.229994D-02
     41  0.504653D-02  0.538276D-02  0.489699D-02 -0.478428D-02  0.156616D-02
     42  0.509556D-02  0.306462D-02  0.555131D-02 -0.637324D-02  0.227670D-02
               26            27            28            29            30 
     26  0.282044D+01
     27 -0.128401D+01  0.223593D+01
     28 -0.563352D-01 -0.418148D-01  0.150581D+01
     29 -0.309385D-01 -0.518856D-01 -0.116261D+01  0.296737D+01
     30 -0.749758D-01  0.228431D-01 -0.490519D-05 -0.293012D-05  0.360605D+01
     31 -0.122668D-02 -0.166792D-01  0.296718D-01 -0.639540D-01  0.628769D-01
     32  0.102846D+00 -0.183300D-01 -0.563358D-01 -0.309394D-01  0.749759D-01
     33  0.183315D-01 -0.158931D+00  0.418147D-01  0.518856D-01  0.228439D-01
     34 -0.391015D-02 -0.459668D-02  0.582528D-02  0.264275D-02  0.000000D+00
     35  0.218945D-02  0.323484D-02 -0.377672D-02 -0.198022D-02  0.000000D+00
     36  0.208688D-03 -0.306578D-03  0.000000D+00  0.000000D+00 -0.438879D-03
     37 -0.180346D-02 -0.320115D-02  0.317015D-02  0.161208D-02 -0.231191D-03
     38 -0.286606D-02 -0.303300D-02  0.407466D-02  0.154464D-02 -0.177808D-03
     39  0.315928D-02  0.411929D-02 -0.502026D-02 -0.252973D-02 -0.290967D-03
     40 -0.199914D-02 -0.265997D-02  0.317015D-02  0.161208D-02  0.231205D-03
     41 -0.304738D-02 -0.281808D-02  0.407467D-02  0.154464D-02  0.177828D-03
     42 -0.289575D-02 -0.457143D-02  0.502026D-02  0.252973D-02 -0.290943D-03
               31            32            33            34            35 
     31  0.353782D+01
     32  0.174860D+00  0.282042D+01
     33 -0.337824D+00  0.128402D+01  0.223595D+01
     34  0.251888D-02 -0.391018D-02  0.459666D-02  0.192238D+01
     35 -0.173562D-02  0.218946D-02 -0.323483D-02  0.150855D+01  0.280816D+01
     36  0.224582D-03 -0.208685D-03 -0.306584D-03  0.000000D+00  0.000000D+00
     37  0.229993D-02 -0.199916D-02  0.265996D-02  0.469989D-01  0.614804D-01
     38  0.156616D-02 -0.304738D-02  0.281805D-02  0.595646D-01 -0.568005D-01
     39 -0.227671D-02  0.289578D-02 -0.457141D-02 -0.413400D-01  0.714645D-01
     40  0.222592D-02 -0.180348D-02  0.320114D-02  0.469988D-01  0.614803D-01
     41  0.142029D-02 -0.286608D-02  0.303300D-02  0.595645D-01 -0.568006D-01
     42  0.279357D-02 -0.315930D-02  0.411926D-02  0.413398D-01 -0.714644D-01
               36            37            38            39            40 
     36  0.387430D+01
     37 -0.553289D-01  0.371846D+01
     38  0.989279D-01 -0.366484D+00  0.299378D+01
     39  0.215182D-01  0.691536D+00  0.146364D+01  0.229596D+01
     40  0.553288D-01  0.118617D+00  0.182864D-02 -0.201191D-01  0.371846D+01
     41 -0.989277D-01  0.182866D-02  0.126840D+00  0.166246D-01 -0.366485D+00
     42  0.215183D-01  0.201191D-01 -0.166249D-01 -0.209248D+00 -0.691535D+00
               41            42 
     41  0.299377D+01
     42 -0.146364D+01  0.229596D+01
 Leave Link  701 at Mon Mar 11 15:51:13 2019, MaxMem=   671088640 cpu:               9.9 elap:               0.5
 (Enter /shared/centos7/gaussian/g16/l702.exe)
 L702 exits ... SP integral derivatives will be done elsewhere.
 Leave Link  702 at Mon Mar 11 15:51:13 2019, MaxMem=   671088640 cpu:               0.4 elap:               0.0
 (Enter /shared/centos7/gaussian/g16/l703.exe)
 Integral derivatives from FoFJK, PRISM(SPDF).
 Compute integral second derivatives, UseDBF=F ICtDFT=           0.
 ICntrl=    100147.
 Calling FoFJK, ICntrl=    100147 FMM=F ISym2X=0 I1Cent= 0 IOpClX= 0 NMat=1 NMatS=1 NMatT=0.
 FoFJK:  IHMeth= 1 ICntrl=  100147 DoSepK=F KAlg= 0 I1Cent=           0 FoldK=F
 IRaf=         0 NMat=       1 IRICut=       1 DoRegI=T DoRafI=F ISym2E= 0 IDoP0=0 IntGTp=1.
 FoFCou: FMM=F IPFlag=           0 FMFlag=      100000 FMFlg1=         800
         NFxFlg=           0 DoJE=F BraDBF=F KetDBF=F FulRan=T
         wScrn=  0.000000 ICntrl=    100147 IOpCl=  0 I1Cent=           0 NGrid=           0
         NMat0=    1 NMatS0=      1 NMatT0=    0 NMatD0=    1 NMtDS0=    0 NMtDT0=    0
 Symmetry not used in FoFCou.
 FoFCou:  KetSym=F NOpSet=  1 NOpAb=1 NOp=  1.
 FoFCou:  CnvScl= 1.00D+00 Thresh= 1.00D-08 IAcrcy=      12.
 PrismS was handed   670715203 working-precision words and  3710 shell-pairs
 FoFCou: LinMIO=F DoNuc=F BraDBF=F KetDBF=F HaveP=T PDBF=F HaveZ=T HaveW=F
         NIJTC =      15 NIJTAt=       0 NIJTCD=       0 NIJTT =      15
         IJTBeg=       1 IJTEnd=      15 KLTBeg=       1 KLTEnd=      15
         IPTBeg=       1 IPTEnd=      15 IPTBCv=       1 IPTECv=      15
         IZTBeg=       1 IZTEnd=      15 IZTBCv=       1 IZTECv=      15
         IWTBeg=      16 IWTEnd=      15 IWTBCv=      16 IWTECv=      15
         INTBeg=       1 INTEnd=       0 IFTBCv=       1 IFTECv=      15
 NCel replicated for PrismC:     1
 CoulSu-InSpLW:  IPartL=    0 NPrtUS=   20 NPrtUL=    1 DoSpLW=F IThBeg=    0 IThEnd=   19 NThAct=   20.
 CoulSu:  IncDef=  1024 NBBP=        6883905 NTPThr=   100 NPartT=   20 Incr=        1024 LDynOK=F GPUOK=T.
 CoulSu:  NPrtUS=  20 ThrOK=T IAlg=1 NPAlg=1 LenDen=           0 LWGrdD=           0 DoCopy=F ISkipM=0
          DoSpLW=F IThBeg=    0 IThEnd=   19.
 Enter PrismC:  IPart=  0 JobTyp=22 DoJE=F Cont=F.
 PrismC:  IPart=     0 DynPar=T LinDyn=F Incr=        1024 UseFst=F UseS4=T ISplat=2.
 PrismC was handed    33465620 working-precision words and  3710 shell-pairs
 Enter PrismC:  IPart=  1 JobTyp=22 DoJE=F Cont=F.
 Enter PrismC:  IPart=  6 JobTyp=22 DoJE=F Cont=F.
 PrismC:  IPart=     1 DynPar=T LinDyn=F Incr=        1024 UseFst=F UseS4=T ISplat=2.
 PrismC:  IPart=     6 DynPar=T LinDyn=F Incr=        1024 UseFst=F UseS4=T ISplat=2.
 PrismC was handed    33465620 working-precision words and  3710 shell-pairs
 PrismC was handed    33465620 working-precision words and  3710 shell-pairs
 Enter PrismC:  IPart= 13 JobTyp=22 DoJE=F Cont=F.
 Enter PrismC:  IPart= 19 JobTyp=22 DoJE=F Cont=F.
 Enter PrismC:  IPart= 11 JobTyp=22 DoJE=F Cont=F.
 PrismC:  IPart=    13 DynPar=T LinDyn=F Incr=        1024 UseFst=F UseS4=T ISplat=2.
 PrismC:  IPart=    19 DynPar=T LinDyn=F Incr=        1024 UseFst=F UseS4=T ISplat=2.
 PrismC was handed    33465620 working-precision words and  3710 shell-pairs
 PrismC:  IPart=    11 DynPar=T LinDyn=F Incr=        1024 UseFst=F UseS4=T ISplat=2.
 Enter PrismC:  IPart= 10 JobTyp=22 DoJE=F Cont=F.
 PrismC was handed    33465620 working-precision words and  3710 shell-pairs
 PrismC was handed    33465620 working-precision words and  3710 shell-pairs
 PrismC:  IPart=    10 DynPar=T LinDyn=F Incr=        1024 UseFst=F UseS4=T ISplat=2.
 PrismC was handed    33465620 working-precision words and  3710 shell-pairs
 Enter PrismC:  IPart=  4 JobTyp=22 DoJE=F Cont=F.
 Enter PrismC:  IPart= 17 JobTyp=22 DoJE=F Cont=F.
 Enter PrismC:  IPart=  8 JobTyp=22 DoJE=F Cont=F.
 Enter PrismC:  IPart=  2 JobTyp=22 DoJE=F Cont=F.
 PrismC:  IPart=    17 DynPar=T LinDyn=F Incr=        1024 UseFst=F UseS4=T ISplat=2.
 Enter PrismC:  IPart= 15 JobTyp=22 DoJE=F Cont=F.
 Enter PrismC:  IPart=  9 JobTyp=22 DoJE=F Cont=F.
 PrismC:  IPart=     8 DynPar=T LinDyn=F Incr=        1024 UseFst=F UseS4=T ISplat=2.
 PrismC was handed    33465620 working-precision words and  3710 shell-pairs
 Enter PrismC:  IPart= 12 JobTyp=22 DoJE=F Cont=F.
 Enter PrismC:  IPart= 14 JobTyp=22 DoJE=F Cont=F.
 Enter PrismC:  IPart= 18 JobTyp=22 DoJE=F Cont=F.
 Enter PrismC:  IPart=  3 JobTyp=22 DoJE=F Cont=F.
 PrismC was handed    33465620 working-precision words and  3710 shell-pairs
 Enter PrismC:  IPart=  7 JobTyp=22 DoJE=F Cont=F.
 PrismC:  IPart=     4 DynPar=T LinDyn=F Incr=        1024 UseFst=F UseS4=T ISplat=2.
 PrismC:  IPart=    14 DynPar=T LinDyn=F Incr=        1024 UseFst=F UseS4=T ISplat=2.
 PrismC was handed    33465620 working-precision words and  3710 shell-pairs
 PrismC was handed    33465620 working-precision words and  3710 shell-pairs
 Enter PrismC:  IPart= 16 JobTyp=22 DoJE=F Cont=F.
 PrismC:  IPart=    15 DynPar=T LinDyn=F Incr=        1024 UseFst=F UseS4=T ISplat=2.
 PrismC:  IPart=    18 DynPar=T LinDyn=F Incr=        1024 UseFst=F UseS4=T ISplat=2.
 PrismC:  IPart=     9 DynPar=T LinDyn=F Incr=        1024 UseFst=F UseS4=T ISplat=2.
 PrismC was handed    33465620 working-precision words and  3710 shell-pairs
 PrismC:  IPart=     7 DynPar=T LinDyn=F Incr=        1024 UseFst=F UseS4=T ISplat=2.
 PrismC was handed    33465620 working-precision words and  3710 shell-pairs
 PrismC:  IPart=     3 DynPar=T LinDyn=F Incr=        1024 UseFst=F UseS4=T ISplat=2.
 PrismC was handed    33465620 working-precision words and  3710 shell-pairs
 PrismC was handed    33465620 working-precision words and  3710 shell-pairs
 PrismC was handed    33465620 working-precision words and  3710 shell-pairs
 PrismC:  IPart=    12 DynPar=T LinDyn=F Incr=        1024 UseFst=F UseS4=T ISplat=2.
 PrismC:  IPart=    16 DynPar=T LinDyn=F Incr=        1024 UseFst=F UseS4=T ISplat=2.
 PrismC was handed    33465620 working-precision words and  3710 shell-pairs
 PrismC was handed    33465620 working-precision words and  3710 shell-pairs
 PrismC:  IPart=     2 DynPar=T LinDyn=F Incr=        1024 UseFst=F UseS4=T ISplat=2.
 PrismC was handed    33465620 working-precision words and  3710 shell-pairs
 Enter PrismC:  IPart=  5 JobTyp=22 DoJE=F Cont=F.
 PrismC:  IPart=     5 DynPar=T LinDyn=F Incr=        1024 UseFst=F UseS4=T ISplat=2.
 PrismC was handed    33465620 working-precision words and  3710 shell-pairs
 IPart= 13 NShTot=      210257 NShNF=      210257 NShFF=           0 MinMC=       7
           NShCPU=      210257 NBCPU=        9016 AvBCPU=        23.3
           NShGPU=           0 NBGPU=           0 AvBGPU=         0.0
 IPart=  9 NShTot=      206077 NShNF=      206077 NShFF=           0 MinMC=       7
           NShCPU=      206077 NBCPU=        9114 AvBCPU=        22.6
           NShGPU=           0 NBGPU=           0 AvBGPU=         0.0
[...]
 ! A10   A(3,4,11)             110.7385         -DE/DX =    0.0                 !
 ! A11   A(9,4,10)             108.6625         -DE/DX =    0.0                 !
 ! A12   A(9,4,11)             107.409          -DE/DX =    0.0                 !
 ! A13   A(10,4,11)            108.6625         -DE/DX =    0.0                 !
 ! A14   A(1,5,12)             106.0037         -DE/DX =    0.0                 !
 ! A15   A(1,5,13)             110.3716         -DE/DX =    0.0                 !
 ! A16   A(1,5,14)             110.3716         -DE/DX =    0.0                 !
 ! A17   A(12,5,13)            110.6129         -DE/DX =    0.0                 !
 ! A18   A(12,5,14)            110.6129         -DE/DX =    0.0                 !
 ! A19   A(13,5,14)            108.8545         -DE/DX =    0.0                 !
 ! A20   A(1,6,2)              123.1066         -DE/DX =    0.0                 !
 ! A21   A(1,6,3)              111.3877         -DE/DX =    0.0                 !
 ! A22   A(2,6,3)              125.5057         -DE/DX =    0.0                 !
 ! D1    D(6,1,5,12)           180.0            -DE/DX =    0.0                 !
 ! D2    D(6,1,5,13)           -60.186          -DE/DX =    0.0                 !
 ! D3    D(6,1,5,14)            60.186          -DE/DX =    0.0                 !
 ! D4    D(5,1,6,2)              0.0            -DE/DX =    0.0                 !
 ! D5    D(5,1,6,3)            179.9999         -DE/DX =    0.0                 !
 ! D6    D(6,3,4,9)            -59.5211         -DE/DX =    0.0                 !
 ! D7    D(6,3,4,10)           179.9999         -DE/DX =    0.0                 !
 ! D8    D(6,3,4,11)            59.5209         -DE/DX =    0.0                 !
 ! D9    D(7,3,4,9)            179.7004         -DE/DX =    0.0                 !
 ! D10   D(7,3,4,10)            59.2214         -DE/DX =    0.0                 !
 ! D11   D(7,3,4,11)           -61.2576         -DE/DX =    0.0                 !
 ! D12   D(8,3,4,9)             61.2575         -DE/DX =    0.0                 !
 ! D13   D(8,3,4,10)           -59.2215         -DE/DX =    0.0                 !
 ! D14   D(8,3,4,11)          -179.7005         -DE/DX =    0.0                 !
 ! D15   D(4,3,6,1)            179.9996         -DE/DX =    0.0                 !
 ! D16   D(4,3,6,2)             -0.0004         -DE/DX =    0.0                 !
 ! D17   D(7,3,6,1)            -56.6867         -DE/DX =    0.0                 !
 ! D18   D(7,3,6,2)            123.3133         -DE/DX =    0.0                 !
 ! D19   D(8,3,6,1)             56.6859         -DE/DX =    0.0                 !
 ! D20   D(8,3,6,2)           -123.3142         -DE/DX =    0.0                 !
 --------------------------------------------------------------------------------
 GradGradGradGradGradGradGradGradGradGradGradGradGradGradGradGradGradGrad

 Leave Link  103 at Mon Mar 11 16:02:02 2019, MaxMem=   671088640 cpu:               0.4 elap:               0.1
 (Enter /shared/centos7/gaussian/g16/l9999.exe)

 ----------------------------------------------------------------------

 Electric dipole moment (input orientation):
 (Debye = 10**-18 statcoulomb cm , SI units = C m)
                  (au)            (Debye)         (10**-30 SI)
   Tot        0.672142D+00      0.170842D+01      0.569866D+01
   x          0.142991D+00      0.363447D+00      0.121233D+01
   y         -0.656756D+00     -0.166931D+01     -0.556821D+01
   z          0.000000D+00      0.000000D+00      0.000000D+00

 Dipole polarizability, Alpha (input orientation).
 (esu units = cm**3 , SI units = C**2 m**2 J**-1)
 Alpha(0;0):
               (au)            (10**-24 esu)      (10**-40 SI)
   iso        0.549812D+02      0.814738D+01      0.906518D+01
   aniso      0.197048D+02      0.291995D+01      0.324889D+01
   xx         0.667956D+02      0.989808D+01      0.110131D+02
   yx        -0.604899D+00     -0.896367D-01     -0.997343D-01
   yy         0.540114D+02      0.800366D+01      0.890528D+01
   zx         0.000000D+00      0.000000D+00      0.000000D+00
   zy         0.000000D+00      0.000000D+00      0.000000D+00
   zz         0.441368D+02      0.654039D+01      0.727717D+01

 ----------------------------------------------------------------------

 Dipole orientation:
     8          1.78740428          0.38916119          1.75349013
     8          0.68569181          0.14928987         -2.31833775
     6         -2.47725392         -0.53935840          0.88629281
     6         -4.39257436         -0.95636365         -1.21059031
     6          4.30594463          0.93750660          0.97237078
     6          0.12344956          0.02687727         -0.12504942
     1         -2.31482320         -2.18739235          2.11564631
     1         -3.01467683          1.02702514          2.11565394
     1         -4.53477284          0.70890727         -2.40866963
     1         -6.24863889         -1.36047471         -0.42245116
     1         -3.82958345         -2.53001203         -2.40867781
     1          5.39283774          1.17414987          2.69425028
     1          5.05959357         -0.61029067         -0.15255637
     1          4.34789540          2.65852352         -0.15255814

 Electric dipole moment (dipole orientation):
 (Debye = 10**-18 statcoulomb cm , SI units = C m)
                  (au)            (Debye)         (10**-30 SI)
   Tot        0.672142D+00      0.170842D+01      0.569866D+01
   x          0.000000D+00      0.000000D+00      0.000000D+00
   y          0.000000D+00      0.000000D+00      0.000000D+00
   z          0.672142D+00      0.170842D+01      0.569866D+01

 Dipole polarizability, Alpha (dipole orientation).
 (esu units = cm**3 , SI units = C**2 m**2 J**-1)
 Alpha(0;0):
               (au)            (10**-24 esu)      (10**-40 SI)
   iso        0.549812D+02      0.814738D+01      0.906518D+01
   aniso      0.197048D+02      0.291995D+01      0.324889D+01
   xx         0.649776D+02      0.962868D+01      0.107134D+02
   yx         0.453754D+01      0.672394D+00      0.748139D+00
   yy         0.451247D+02      0.668679D+01      0.744006D+01
   zx         0.313416D+01      0.464435D+00      0.516754D+00
   zy         0.682379D+00      0.101118D+00      0.112509D+00
   zz         0.548415D+02      0.812667D+01      0.904214D+01

 ----------------------------------------------------------------------

 Test job not archived.
 1\1\GINC-C0274\Freq\RM062X\6-311+G(2df,2p)\C4H8O2\UNDERKOFFLER.C\11-Ma
 r-2019\0\\#P Geom=AllCheck Guess=TCheck SCRF=Check Test GenChk RM062X/
 6-311+G(2df,2p) Freq\\Gaussian input prepared by ASE\\0,1\O,1.14325626
 ,-0.7007317103,0.0000003577\O,0.1018610403,1.2777299562,-0.0000002088\
 C,-1.2111304545,-0.7436850069,-0.0000012916\C,-2.4607344594,0.11986516
 87,0.000001672\C,2.3880744327,-0.0066713576,0.0000005835\C,0.051248948
 6,0.078881665,-0.0000002829\H,-1.1719527943,-1.4009411747,-0.870426164
 5\H,-1.1719515878,-1.4009457269,0.8704200761\H,-2.484273413,0.76358895
 32,0.8770614687\H,-3.3541954958,-0.5014982479,0.0000003191\H,-2.484274
 1097,0.7635939212,-0.877054453\H,3.1570774907,-0.7717672523,0.00000083
 88\H,2.4719402729,0.6208203193,-0.8851525684\H,2.4719398693,0.62082049
 28,0.8851536534\\Version=EM64L-G16RevA.03\State=1-A\HF=-307.6763594\RM
 SD=8.898e-10\RMSF=3.450e-07\ZeroPoint=0.1196264\Thermal=0.1268496\Dipo
 le=0.1429912,-0.6567563,-0.0000003\DipoleDeriv=-1.6970374,0.2357176,-0
 .0000005,0.2394189,-0.7036441,0.0000002,-0.0000007,0.0000002,-0.289154
 ,-0.7336674,-0.1147759,0.,0.1936587,-1.1266366,0.,-0.0000003,-0.000000
 1,-0.3385975,-0.0825293,-0.1207031,-0.0000003,-0.1856199,-0.0719167,-0
 .0000002,-0.0000009,-0.0000006,0.0942601,0.0467342,0.0342074,0.,-0.008
 7456,0.0396082,0.,0.,0.0000001,0.0531229,0.771689,0.0611818,0.0000001,
 0.2297702,0.2982186,0.,0.,0.,0.2706492,1.7794866,-0.1303564,0.0000009,
 -0.4772255,1.4508325,0.,0.0000013,0.0000001,0.2506323,0.0005669,0.0092
 195,0.0216969,0.0319368,0.0253449,-0.0560288,0.015246,-0.0859543,-0.01
 09227,0.0005669,0.0092197,-0.0216968,0.0319371,0.0253441,0.056029,-0.0
 152457,0.0859546,-0.0109219,0.0476455,0.0056414,-0.0228079,0.0485606,0
 .0097472,-0.0685433,0.0124942,-0.0748726,-0.0442868,-0.1078576,-0.0644
 107,0.,-0.0893371,0.0005249,-0.0000002,-0.0000001,-0.0000002,0.0795725
 ,0.0476457,0.0056414,0.0228079,0.0485608,0.0097465,0.0685434,-0.012494
 ,0.0748728,-0.0442858,-0.0555327,0.043852,0.,0.0958533,-0.0136045,0.,0
 .,0.,0.0852761,-0.0088551,0.0127826,-0.0373799,-0.0793841,0.0282175,0.
 0598362,0.0308735,0.0642473,-0.0476722,-0.0088552,0.0127826,0.0373799,
 -0.0793841,0.0282175,-0.0598363,-0.0308735,-0.0642473,-0.0476722\Polar
 =66.7955683,-0.6048987,54.0113921,0.0000016,0.0000066,44.1367616\Quadr
 upole=3.8569766,-3.9536983,0.0967216,1.1091768,0.0000017,0.0000011\PG=
 C01 [X(C4H8O2)]\NImag=0\\0.54597213,-0.02318559,0.37440208,0.00000019,
 -0.00000007,0.07981448,-0.00016535,0.06123129,-0.00000002,0.11809304,0
 .06864031,-0.08690474,0.00000003,0.02179983,0.89016996,-0.00000002,0.0
 0000004,0.03058772,0.00000005,0.00000004,0.03313863,-0.04582156,-0.012
 85093,-0.00000005,0.00468332,-0.00920770,0.,0.49404278,0.01883695,0.01
 296944,0.00000001,-0.03166642,-0.04046983,-0.00000006,-0.02300933,0.54
 840609,-0.00000003,0.,0.01079573,0.,-0.00000003,0.02633043,0.00000002,
 -0.00000020,0.56363834,-0.00451106,-0.00214312,0.,0.00102065,0.0049219
 8,-0.00000001,-0.16389257,0.05950645,0.00000022,0.52452329,-0.00714540
 ,-0.00222228,-0.00000001,-0.00256048,-0.00113370,0.,0.06384919,-0.1266
 5040,-0.00000014,0.04926238,0.55483278,-0.00000002,0.,0.00139109,-0.00
 000002,0.,-0.00150593,0.00000023,-0.00000014,-0.08068353,0.00000015,-0
 .00000009,0.58143041,-0.17967384,-0.05040365,-0.00000003,0.00369214,-0
 .01719072,0.,0.00120997,0.00427144,0.,-0.00004980,-0.00074392,0.,0.520
 17572,-0.07899854,-0.13340417,-0.00000001,0.00577511,-0.00772164,0.,0.
 00367804,-0.00226342,0.,0.00104693,0.00098224,0.,-0.07521340,0.5881913
 8,-0.00000001,0.,-0.06742494,0.,0.,-0.00641525,0.,0.00000002,0.0045765
 3,0.,0.,0.00077685,0.,-0.00000002,0.59341132,-0.23663001,0.05512555,-0
 .00000008,-0.12176370,-0.06725654,-0.00000002,-0.16749250,-0.05340472,
 -0.00000003,-0.03266974,-0.00982958,-0.00000002,-0.06901725,0.01133486
 ,-0.00000004,0.61184527,0.06496977,-0.15755823,0.00000005,-0.04763619,
 -0.75830284,-0.00000004,-0.04977732,-0.10505067,0.,0.01223554,0.015310
 97,0.00000002,0.00502041,0.02519959,0.,0.05819826,1.02542463,-0.000000
 11,0.00000004,-0.06988868,-0.00000002,-0.00000005,-0.08293321,-0.00000
 006,-0.00000001,-0.09359159,0.00000006,0.00000005,-0.00130954,-0.00000
 002,0.,0.00187238,0.00000021,0.00000005,0.24377470,-0.00165122,0.00093
 425,0.00216673,-0.00345330,-0.00331472,0.00376261,-0.04803679,0.003037
 48,0.00340207,-0.00081050,0.01733433,0.02383596,0.00021436,0.00000386,
 0.00051013,0.00382903,-0.01528064,-0.02738959,0.05319390,0.00149979,0.
 00086693,0.00117977,-0.00364007,-0.00149056,0.00251712,0.00352501,-0.1
 3799508,-0.13003103,0.00056719,-0.01047624,-0.01360152,-0.00045375,-0.
 00008120,0.00078364,0.00071830,-0.01520487,-0.01798742,-0.00475383,0.1
 5230302,-0.00011298,0.00056025,0.00059297,0.00008389,0.00157249,-0.000
 63464,0.00411330,-0.12863769,-0.21640253,0.00070478,0.00170968,0.00224
 807,-0.00040954,0.00000403,0.00021116,0.00099699,-0.00028478,0.0000157
 9,-0.00556670,0.14040437,0.23405779,-0.00165122,0.00093425,-0.00216672
 ,-0.00345332,-0.00331474,-0.00376261,-0.04803685,0.00303772,-0.0034023
 2,-0.00081053,0.01733444,-0.02383587,0.00021437,0.00000386,-0.00051012
 ,0.00382909,-0.01528076,0.02738951,-0.00042127,0.00026567,-0.00037623,
 0.05319396,0.00149980,0.00086694,-0.00117976,-0.00364009,-0.00149056,-
 0.00251710,0.00352521,-0.13799647,0.13003143,0.00056720,-0.01047629,0.
 01360145,-0.00045375,-0.00008120,-0.00078364,0.00071834,-0.01520496,0.
 01798733,0.00026565,0.01227211,-0.01599688,-0.00475406,0.15230453,0.00
 011298,-0.00056026,0.00059296,-0.00008390,-0.00157249,-0.00063464,-0.0
 0411349,0.12863811,-0.21640118,-0.00070478,-0.00170978,0.00224817,0.00
 040954,-0.00000403,0.00021116,-0.00099701,0.00028472,0.00001583,0.0003
 7621,0.01599705,-0.02209204,0.00556693,-0.14040479,0.23405631,0.000288
 51,-0.00056088,-0.00022712,0.00009228,-0.00143210,-0.00048926,-0.00169
 902,0.01722388,0.02438217,-0.04703493,0.00069976,0.00089785,-0.0000003
 0,-0.00005574,-0.00009404,0.00083984,0.00261592,0.00130821,-0.00485434
 ,0.00288470,-0.00035279,0.00122803,-0.00056157,-0.00030825,0.05096212,
 0.00029689,0.00009391,0.00007426,-0.00011757,0.00073332,0.00019786,0.0
 0119699,-0.01218713,-0.01554584,0.00235646,-0.14033676,-0.12963359,-0.
 00011115,-0.00003591,0.00002632,-0.00107030,-0.00060563,0.00010994,0.0
 0325859,-0.00110148,0.00075041,-0.00062143,0.00010788,0.00000644,-0.00
 593778,0.15160295,0.00000893,0.00055920,-0.00010852,-0.00060303,0.0011
 9619,0.00030518,0.00061773,0.00172169,0.00181453,0.00339499,-0.1299138
 9,-0.22810854,0.00004973,-0.00000661,-0.00001951,-0.00036667,-0.002149
 90,0.00002862,-0.00064886,0.00044577,0.00139571,0.00057112,-0.00003201
 ,0.00062767,-0.00234765,0.14233372,0.24373843,-0.00270558,-0.00074462,
 0.,0.00004220,-0.00012655,0.,-0.02155410,-0.01627200,-0.00000003,-0.22
 834552,-0.12830397,-0.00000028,0.00014166,0.00046125,0.,-0.00094421,0.
 00468060,0.00000001,0.00081524,-0.00023686,0.00053228,0.00081524,-0.00
 023686,-0.00053228,0.00125100,0.00107128,-0.00069400,0.24948457,0.0014
 6598,0.00106480,0.,-0.00111839,0.00153850,0.,0.01891713,0.01262716,0.0
 0000002,-0.13046155,-0.13920648,-0.00000020,0.00025338,-0.00023462,0.,
 0.00273431,-0.00519527,-0.00000001,-0.00092660,0.00074295,-0.00016526,
 -0.00092660,0.00074294,0.00016527,-0.01445115,-0.01068098,0.00182303,0
 .13879096,0.14920004,0.,0.,0.00009708,0.,0.,0.00039185,0.00000006,0.00
 000005,-0.00132127,-0.00000029,-0.00000021,-0.04834014,0.,0.,0.0000129
 3,0.00000001,-0.00000001,0.00052334,0.00017833,0.00034161,0.00001610,-
 0.00017834,-0.00034161,0.00001610,-0.02278157,-0.01430168,0.00121985,0
 .00000030,0.00000024,0.04616874,0.00028851,-0.00056089,0.00022712,0.00
 009227,-0.00143211,0.00048926,-0.00169903,0.01722402,-0.02438207,-0.04
 703494,0.00069987,-0.00089798,-0.00000030,-0.00005574,0.00009404,0.000
 83983,0.00261593,-0.00130820,0.00122803,-0.00056157,0.00030824,-0.0048
 5434,0.00288469,0.00035282,-0.00101124,-0.00040102,-0.00001125,0.00125
 102,-0.01445128,0.02278148,0.05096213,0.00029689,0.00009391,-0.0000742
 5,-0.00011759,0.00073333,-0.00019787,0.00119700,-0.01218721,0.01554577
 ,0.00235659,-0.14033823,0.12963408,-0.00011115,-0.00003591,-0.00002632
 ,-0.00107030,-0.00060564,-0.00010993,-0.00062143,0.00010788,-0.0000064
 4,0.00325858,-0.00110148,-0.00075043,-0.00040103,0.01236480,-0.0159775
 4,0.00107130,-0.01068105,0.01430161,-0.00593790,0.15160457,-0.00000892
 ,-0.00055920,-0.00010852,0.00060304,-0.00119618,0.00030517,-0.00061773
 ,-0.00172178,0.00181462,-0.00339512,0.12991437,-0.22810705,-0.00004973
 ,0.00000661,-0.00001951,0.00036666,0.00214990,0.00002862,-0.00057113,0
 .00003201,0.00062767,0.00064888,-0.00044578,0.00139570,0.00001123,0.01
 597772,-0.02090364,0.00069400,-0.00182309,0.00121991,0.00234777,-0.142
 33422,0.24373679,-0.03700709,0.01944154,-0.00000001,0.00130489,0.00117
 286,0.,-0.00092335,0.00114383,0.,-0.00031748,-0.00045850,0.,-0.1772845
 0,0.13570932,-0.00000004,-0.00130446,-0.00721241,0.,-0.00002870,0.0000
 1410,-0.00003299,-0.00002870,0.00001410,0.00003299,0.00001817,0.000015
 89,0.00000916,-0.00016669,0.00010731,0.,0.00001817,0.00001589,-0.00000
 916,0.20817313,-0.02240107,0.01492763,0.,0.00217600,0.00202954,0.,-0.0
 0060194,0.00073290,0.,-0.00016705,-0.00019099,0.,0.14941175,-0.1997193
 8,0.00000005,-0.00283509,-0.00519052,0.,0.00003106,0.00002177,-0.00001
 721,0.00003106,0.00002177,0.00001721,-0.00001317,0.00000205,0.00001743
 ,-0.00006153,0.00007104,0.,-0.00001317,0.00000205,-0.00001743,-0.14760
 435,0.20842939,0.,0.,0.00009812,0.,0.,0.00070743,0.,0.,0.00022182,0.,0
 .,-0.00000715,-0.00000004,0.00000005,-0.05331824,0.,0.,0.00021549,0.00
 001974,0.00000657,-0.00000952,-0.00001973,-0.00000657,-0.00000952,-0.0
 0000004,-0.00000561,-0.00000120,0.,0.,-0.00000360,0.00000004,0.0000056
 1,-0.00000120,0.00000005,-0.00000005,0.04734669,-0.01836612,-0.0236085
 9,0.02819246,-0.00009256,0.00337010,0.00011881,-0.00039016,0.00003534,
 -0.00094119,-0.00003344,-0.00006907,-0.00014075,-0.04981112,-0.0018449
 3,0.00409034,0.00431940,-0.00757455,0.00165763,-0.00014366,-0.00009563
 ,0.00000604,0.00011922,0.00026697,-0.00010571,-0.00000876,0.00002621,0
 .00001469,-0.00004242,0.00003325,-0.00000219,-0.00007136,0.00003693,-0
 .00000511,0.00377331,0.01102375,-0.01923038,0.05919739,-0.01288790,-0.
 01259811,0.01206532,-0.00024272,0.00115462,-0.00020315,-0.00022067,0.0
 0003230,0.00015442,-0.00002450,-0.00004731,-0.00007207,-0.00713778,-0.
 13539785,0.12442740,0.00331846,-0.00150828,-0.00026297,0.00001732,-0.0
 0000989,0.00001559,0.00001469,0.00004467,-0.00009144,0.00000756,0.0000
 0637,-0.00001144,-0.00004650,0.00000549,0.00000280,-0.00001841,0.00003
 662,0.00000563,-0.00117980,-0.01056862,0.01842739,0.01630910,0.1469781
 2,0.00492833,-0.00148883,0.00678026,-0.00125802,-0.00156591,0.00017863
 ,0.00013278,-0.00015948,-0.00039595,0.00003354,0.00000885,-0.00001636,
 0.01200414,0.12604961,-0.23693747,-0.00165613,0.00306631,0.00062412,-0
 .00007881,-0.00010503,-0.00003615,-0.00000331,-0.00001709,0.00000961,0
 .00001399,0.00000647,-0.00000662,0.00001003,-0.00001678,-0.00000045,0.
 00001273,-0.00000359,0.00001805,-0.00091563,-0.00224723,0.00238044,-0.
 01343914,-0.13899238,0.24814396,-0.01836610,-0.02360860,-0.02819247,-0
 .00009256,0.00337010,-0.00011881,-0.00039016,0.00003534,0.00094119,-0.
 00003344,-0.00006907,0.00014075,-0.04981111,-0.00184488,-0.00409026,0.
 00431940,-0.00757455,-0.00165762,0.00011922,0.00026697,0.00010571,-0.0
 0014366,-0.00009563,-0.00000604,-0.00007136,0.00003693,0.00000511,-0.0
 0004242,0.00003325,0.00000219,-0.00000876,0.00002621,-0.00001469,0.003
 77330,0.01102376,0.01923038,0.00155025,0.00209114,0.00021552,0.0591973
 8,-0.01288789,-0.01259811,-0.01206532,-0.00024271,0.00115462,0.0002031
 5,-0.00022067,0.00003230,-0.00015442,-0.00002450,-0.00004731,0.0000720
 7,-0.00713772,-0.13539789,-0.12442742,0.00331846,-0.00150828,0.0002629
 7,0.00001469,0.00004467,0.00009144,0.00001732,-0.00000989,-0.00001559,
 -0.00001841,0.00003662,-0.00000562,-0.00004650,0.00000549,-0.00000280,
 0.00000756,0.00000637,0.00001144,-0.00117979,-0.01056862,-0.01842739,0
 .00209113,0.01187186,0.01546510,0.01630903,0.14697818,-0.00492834,0.00
 148883,0.00678025,0.00125802,0.00156591,0.00017863,-0.00013278,0.00015
 948,-0.00039595,-0.00003354,-0.00000885,-0.00001636,-0.01200405,-0.126
 04963,-0.23693742,0.00165613,-0.00306631,0.00062412,0.00000331,0.00001
 709,0.00000961,0.00007881,0.00010503,-0.00003615,-0.00001273,0.0000035
 9,0.00001805,-0.00001003,0.00001678,-0.00000045,-0.00001399,-0.0000064
 7,-0.00000662,0.00091563,0.00224724,0.00238045,-0.00021551,-0.01546510
 ,-0.02074209,0.01343905,0.13899240,0.24814392\\-0.00000014,-0.00000036
 ,0.,0.00000036,-0.00000014,0.00000001,-0.00000014,0.00000026,-0.000000
 01,0.00000005,0.00000060,0.,0.00000008,-0.00000066,0.,0.,0.00000004,-0
 .00000001,-0.00000035,0.00000026,0.,-0.00000035,0.00000025,0.,0.000000
 22,0.00000061,0.,-0.00000011,0.00000083,0.,0.00000023,0.00000061,0.,-0
 .00000020,-0.00000087,0.,0.00000018,-0.00000071,0.00000002,0.00000018,
 -0.00000071,-0.00000001\\\@


 THE RARE EARTHS PERPLEX US IN OUR RESEARCHES,
 BAFFLE US IN OUR SPECULATIONS, AND HAUNT US IN OUR
 VERY DREAMS.  THEY STRETCH LIKE AN UNKNOWN BEFORE US,
 MOCKING, MYSTIFYING, AND MURMURING STRANGE REVELATIONS
 AND POSSIBILITIES.  -- SIR WILLIAM CROOKE, 1832-1919
 Job cpu time:       0 days  2 hours 22 minutes 35.9 seconds.
 Elapsed time:       0 days  0 hours  7 minutes  8.5 seconds.
 File lengths (MBytes):  RWF=   1344 Int=      0 D2E=      0 Chk=     32 Scr=     32
 Normal termination of Gaussian 16 at Mon Mar 11 16:02:02 2019.
