 Entering Gaussian System, Link 0=g16
 Input=RJUFJBKOKNCXHH-UHFFFAOYSA-N_GeoFreq_c1_a1.com
 Output=RJUFJBKOKNCXHH-UHFFFAOYSA-N_GeoFreq_c1_a1.log
 Initial command:
 /shared/centos7/gaussian/g16/l1.exe "/scratch/underkoffler.c/gaussian_scratch/Gau-44135.inp" -scrdir="/scratch/underkoffler.c/gaussian_scratch/"
 Entering Link 1 = /shared/centos7/gaussian/g16/l1.exe PID=     44136.
  
 Copyright (c) 1988,1990,1992,1993,1995,1998,2003,2009,2016,
            Gaussian, Inc.  All Rights Reserved.
  
 This is part of the Gaussian(R) 16 program.  It is based on
 the Gaussian(R) 09 system (copyright 2009, Gaussian, Inc.),
 the Gaussian(R) 03 system (copyright 2003, Gaussian, Inc.),
 the Gaussian(R) 98 system (copyright 1998, Gaussian, Inc.),
 the Gaussian(R) 94 system (copyright 1995, Gaussian, Inc.),
 the Gaussian 92(TM) system (copyright 1992, Gaussian, Inc.),
 the Gaussian 90(TM) system (copyright 1990, Gaussian, Inc.),
 the Gaussian 88(TM) system (copyright 1988, Gaussian, Inc.),
 the Gaussian 86(TM) system (copyright 1986, Carnegie Mellon
 University), and the Gaussian 82(TM) system (copyright 1983,
 Carnegie Mellon University). Gaussian is a federally registered
 trademark of Gaussian, Inc.
  
 This software contains proprietary and confidential information,
 including trade secrets, belonging to Gaussian, Inc.
  
 This software is provided under written license and may be
 used, copied, transmitted, or stored only in accord with that
 written license.
  
 The following legend is applicable only to US Government
 contracts under FAR:
  
                    RESTRICTED RIGHTS LEGEND
  
 Use, reproduction and disclosure by the US Government is
 subject to restrictions as set forth in subparagraphs (a)
 and (c) of the Commercial Computer Software - Restricted
 Rights clause in FAR 52.227-19.
  
 Gaussian, Inc.
 340 Quinnipiac St., Bldg. 40, Wallingford CT 06492
  
  
 ---------------------------------------------------------------
 Warning -- This program may not be used in any manner that
 competes with the business of Gaussian, Inc. or will provide
 assistance to any competitor of Gaussian, Inc.  The licensee
 of this program is prohibited from giving any competitor of
 Gaussian, Inc. access to this program.  By using this program,
 the user acknowledges that Gaussian, Inc. is engaged in the
 business of creating and licensing software in the field of
 computational chemistry and represents and warrants to the
 licensee that it is not a competitor of Gaussian, Inc. and that
 it will not use this program in any manner prohibited above.
 ---------------------------------------------------------------
  

 Cite this work as:
 Gaussian 16, Revision A.03,
 M. J. Frisch, G. W. Trucks, H. B. Schlegel, G. E. Scuseria, 
 M. A. Robb, J. R. Cheeseman, G. Scalmani, V. Barone, 
 G. A. Petersson, H. Nakatsuji, X. Li, M. Caricato, A. V. Marenich, 
 J. Bloino, B. G. Janesko, R. Gomperts, B. Mennucci, H. P. Hratchian, 
 J. V. Ortiz, A. F. Izmaylov, J. L. Sonnenberg, D. Williams-Young, 
 F. Ding, F. Lipparini, F. Egidi, J. Goings, B. Peng, A. Petrone, 
 T. Henderson, D. Ranasinghe, V. G. Zakrzewski, J. Gao, N. Rega, 
 G. Zheng, W. Liang, M. Hada, M. Ehara, K. Toyota, R. Fukuda, 
 J. Hasegawa, M. Ishida, T. Nakajima, Y. Honda, O. Kitao, H. Nakai, 
 T. Vreven, K. Throssell, J. A. Montgomery, Jr., J. E. Peralta, 
 F. Ogliaro, M. J. Bearpark, J. J. Heyd, E. N. Brothers, K. N. Kudin, 
 V. N. Staroverov, T. A. Keith, R. Kobayashi, J. Normand, 
 K. Raghavachari, A. P. Rendell, J. C. Burant, S. S. Iyengar, 
 J. Tomasi, M. Cossi, J. M. Millam, M. Klene, C. Adamo, R. Cammi, 
 J. W. Ochterski, R. L. Martin, K. Morokuma, O. Farkas, 
 J. B. Foresman, and D. J. Fox, Gaussian, Inc., Wallingford CT, 2016.
 
 ******************************************
 Gaussian 16:  EM64L-G16RevA.03 25-Dec-2016
                 9-Apr-2019 
 ******************************************
 %nprocshared=20
 Will use up to   20 processors via shared memory.
 %mem=5GB
 ----------------------------------------------------------------------
 #p m062x/6-311+g(2df,2p) opt=(calcfc,verytight,gdiis,maxcycles=900) fr
 eq iop(7/33=1,2/16=3)
 ----------------------------------------------------------------------

 Warning!  Use of Opt=GDIIS is deprecated since it is seldom a good choice.

 1/6=900,7=1,10=4,18=20,19=11,26=3,38=1/1,3;
 2/9=110,12=2,16=3,17=6,18=5,40=1/2;
 3/5=4,6=6,7=214,11=2,25=1,30=1,71=2,74=-55,140=1/1,2,3;
 4//1;
 5/5=2,38=5/2;
 8/6=4,10=90,11=11/1;
 11/6=1,8=1,9=11,15=111,16=1/1,2,10;
 10/6=1,13=1/2;
 6/7=2,8=2,9=2,10=2,28=1/1;
 7/10=1,18=20,25=1,33=1/1,2,3,16;
 1/6=900,7=1,10=4,18=20,19=11,26=3/3(2);
 2/9=110,16=3/2;
 99//99;
 2/9=110,16=3/2;
 3/5=4,6=6,7=214,11=2,25=1,30=1,71=1,74=-55/1,2,3;
 4/5=5,16=3,69=1/1;
 5/5=2,38=5/2;
 7/33=1/1,2,3,16;
 1/6=900,7=1,18=20,19=11,26=3/3(-5);
 2/9=110,16=3/2;
 6/7=2,8=2,9=2,10=2,19=2,28=1/1;
 99/9=1/99;
 Leave Link    1 at Tue Apr  9 01:48:20 2019, MaxMem=   671088640 cpu:              25.8 elap:               1.4
 (Enter /shared/centos7/gaussian/g16/l101.exe)
 ------------------------------
 Gaussian input prepared by ASE
 ------------------------------
 Symbolic Z-matrix:
 Charge =  0 Multiplicity = 1
 O                     1.28873   0.5433    0.37853 
 O                     1.11826  -1.75352   0.04765 
 C                    -0.68712  -0.58028   1.23024 
 C                    -0.57149   0.0282    2.61195 
 C                     2.50825   0.42473  -0.34965 
 C                     0.62426  -0.68107   0.51265 
 H                    -1.3661    0.03791   0.62678 
 H                    -1.14952  -1.59391   1.30507 
 H                    -1.57926   0.17614   3.06273 
 H                    -0.05464   1.0177    2.56808 
 H                     0.01776  -0.6398    3.28959 
 H                     3.20263   1.19907   0.02254 
 H                     2.32067   0.59747  -1.4372 
 H                     2.94919  -0.59507  -0.20559 
 
 ITRead=  0  0  0  0  0  0  0  0  0  0  0  0  0  0
 MicOpt= -1 -1 -1 -1 -1 -1 -1 -1 -1 -1 -1 -1 -1 -1
 NAtoms=     14 NQM=       14 NQMF=       0 NMMI=      0 NMMIF=      0
                NMic=       0 NMicF=      0.
                    Isotopes and Nuclear Properties:
 (Nuclear quadrupole moments (NQMom) in fm**2, nuclear magnetic moments (NMagM)
  in nuclear magnetons)

  Atom         1           2           3           4           5           6           7           8           9          10
 IAtWgt=          16          16          12          12          12          12           1           1           1           1
 AtmWgt=  15.9949146  15.9949146  12.0000000  12.0000000  12.0000000  12.0000000   1.0078250   1.0078250   1.0078250   1.0078250
 NucSpn=           0           0           0           0           0           0           1           1           1           1
 AtZEff=  -0.0000000  -0.0000000  -0.0000000  -0.0000000  -0.0000000  -0.0000000  -0.0000000  -0.0000000  -0.0000000  -0.0000000
 NQMom=    0.0000000   0.0000000   0.0000000   0.0000000   0.0000000   0.0000000   0.0000000   0.0000000   0.0000000   0.0000000
 NMagM=    0.0000000   0.0000000   0.0000000   0.0000000   0.0000000   0.0000000   2.7928460   2.7928460   2.7928460   2.7928460
 AtZNuc=   8.0000000   8.0000000   6.0000000   6.0000000   6.0000000   6.0000000   1.0000000   1.0000000   1.0000000   1.0000000

  Atom        11          12          13          14
 IAtWgt=           1           1           1           1
 AtmWgt=   1.0078250   1.0078250   1.0078250   1.0078250
 NucSpn=           1           1           1           1
 AtZEff=  -0.0000000  -0.0000000  -0.0000000  -0.0000000
 NQMom=    0.0000000   0.0000000   0.0000000   0.0000000
 NMagM=    2.7928460   2.7928460   2.7928460   2.7928460
 AtZNuc=   1.0000000   1.0000000   1.0000000   1.0000000
 Leave Link  101 at Tue Apr  9 01:48:20 2019, MaxMem=   671088640 cpu:               8.5 elap:               0.4
 (Enter /shared/centos7/gaussian/g16/l103.exe)

 GradGradGradGradGradGradGradGradGradGradGradGradGradGradGradGradGradGrad
 Berny optimization.
 Initialization pass.
                           ----------------------------
                           !    Initial Parameters    !
                           ! (Angstroms and Degrees)  !
 --------------------------                            --------------------------
 ! Name  Definition              Value          Derivative Info.                !
 --------------------------------------------------------------------------------
 ! R1    R(1,5)                  1.4253         calculate D2E/DX2 analytically  !
 ! R2    R(1,6)                  1.3995         calculate D2E/DX2 analytically  !
 ! R3    R(2,6)                  1.269          calculate D2E/DX2 analytically  !
 ! R4    R(3,4)                  1.5142         calculate D2E/DX2 analytically  !
 ! R5    R(3,6)                  1.4983         calculate D2E/DX2 analytically  !
 ! R6    R(3,7)                  1.0988         calculate D2E/DX2 analytically  !
 ! R7    R(3,8)                  1.1166         calculate D2E/DX2 analytically  !
 ! R8    R(4,9)                  1.1139         calculate D2E/DX2 analytically  !
 ! R9    R(4,10)                 1.1172         calculate D2E/DX2 analytically  !
 ! R10   R(4,11)                 1.1192         calculate D2E/DX2 analytically  !
 ! R11   R(5,12)                 1.1047         calculate D2E/DX2 analytically  !
 ! R12   R(5,13)                 1.117          calculate D2E/DX2 analytically  !
 ! R13   R(5,14)                 1.1203         calculate D2E/DX2 analytically  !
 ! A1    A(5,1,6)              112.4839         calculate D2E/DX2 analytically  !
 ! A2    A(4,3,6)              113.4054         calculate D2E/DX2 analytically  !
 ! A3    A(4,3,7)              108.7992         calculate D2E/DX2 analytically  !
 ! A4    A(4,3,8)              109.5881         calculate D2E/DX2 analytically  !
 ! A5    A(6,3,7)              108.401          calculate D2E/DX2 analytically  !
 ! A6    A(6,3,8)              109.4806         calculate D2E/DX2 analytically  !
 ! A7    A(7,3,8)              106.9557         calculate D2E/DX2 analytically  !
 ! A8    A(3,4,9)              110.7063         calculate D2E/DX2 analytically  !
 ! A9    A(3,4,10)             110.8188         calculate D2E/DX2 analytically  !
 ! A10   A(3,4,11)             110.6613         calculate D2E/DX2 analytically  !
 ! A11   A(9,4,10)             108.4707         calculate D2E/DX2 analytically  !
 ! A12   A(9,4,11)             108.0946         calculate D2E/DX2 analytically  !
 ! A13   A(10,4,11)            107.9887         calculate D2E/DX2 analytically  !
 ! A14   A(1,5,12)             107.9017         calculate D2E/DX2 analytically  !
 ! A15   A(1,5,13)             109.9291         calculate D2E/DX2 analytically  !
 ! A16   A(1,5,14)             110.2903         calculate D2E/DX2 analytically  !
 ! A17   A(12,5,13)            108.9766         calculate D2E/DX2 analytically  !
 ! A18   A(12,5,14)            110.3252         calculate D2E/DX2 analytically  !
 ! A19   A(13,5,14)            109.3926         calculate D2E/DX2 analytically  !
 ! A20   A(1,6,2)              121.2926         calculate D2E/DX2 analytically  !
 ! A21   A(1,6,3)              113.7422         calculate D2E/DX2 analytically  !
 ! A22   A(2,6,3)              124.9639         calculate D2E/DX2 analytically  !
 ! D1    D(6,1,5,12)          -150.0535         calculate D2E/DX2 analytically  !
 ! D2    D(6,1,5,13)            91.2211         calculate D2E/DX2 analytically  !
 ! D3    D(6,1,5,14)           -29.4831         calculate D2E/DX2 analytically  !
 ! D4    D(5,1,6,2)              1.744          calculate D2E/DX2 analytically  !
 ! D5    D(5,1,6,3)           -177.8618         calculate D2E/DX2 analytically  !
 ! D6    D(6,3,4,9)            174.31           calculate D2E/DX2 analytically  !
 ! D7    D(6,3,4,10)            53.9066         calculate D2E/DX2 analytically  !
 ! D8    D(6,3,4,11)           -65.8621         calculate D2E/DX2 analytically  !
 ! D9    D(7,3,4,9)             53.5995         calculate D2E/DX2 analytically  !
 ! D10   D(7,3,4,10)           -66.8039         calculate D2E/DX2 analytically  !
 ! D11   D(7,3,4,11)           173.4274         calculate D2E/DX2 analytically  !
 ! D12   D(8,3,4,9)            -63.024          calculate D2E/DX2 analytically  !
 ! D13   D(8,3,4,10)           176.5726         calculate D2E/DX2 analytically  !
 ! D14   D(8,3,4,11)            56.8039         calculate D2E/DX2 analytically  !
 ! D15   D(4,3,6,1)            -56.7729         calculate D2E/DX2 analytically  !
 ! D16   D(4,3,6,2)            123.6381         calculate D2E/DX2 analytically  !
 ! D17   D(7,3,6,1)             64.1622         calculate D2E/DX2 analytically  !
 ! D18   D(7,3,6,2)           -115.4267         calculate D2E/DX2 analytically  !
 ! D19   D(8,3,6,1)           -179.4983         calculate D2E/DX2 analytically  !
 ! D20   D(8,3,6,2)              0.9127         calculate D2E/DX2 analytically  !
 --------------------------------------------------------------------------------
 Trust Radius=3.00D-01 FncErr=1.00D-07 GrdErr=1.00D-06 EigMax=2.50D+02 EigMin=1.00D-04
 Number of steps in this run=    100 maximum allowed number of steps=    100.
 GradGradGradGradGradGradGradGradGradGradGradGradGradGradGradGradGradGrad

 Leave Link  103 at Tue Apr  9 01:48:21 2019, MaxMem=   671088640 cpu:               0.2 elap:               0.0
 (Enter /shared/centos7/gaussian/g16/l202.exe)
                          Input orientation:                          
 ---------------------------------------------------------------------
 Center     Atomic      Atomic             Coordinates (Angstroms)
 Number     Number       Type             X           Y           Z
 ---------------------------------------------------------------------
      1          8           0        1.288731    0.543299    0.378531
      2          8           0        1.118255   -1.753518    0.047648
      3          6           0       -0.687122   -0.580284    1.230235
      4          6           0       -0.571494    0.028202    2.611953
      5          6           0        2.508251    0.424732   -0.349645
      6          6           0        0.624260   -0.681065    0.512650
      7          1           0       -1.366104    0.037906    0.626778
      8          1           0       -1.149519   -1.593909    1.305069
      9          1           0       -1.579263    0.176138    3.062733
     10          1           0       -0.054644    1.017702    2.568085
     11          1           0        0.017759   -0.639800    3.289585
     12          1           0        3.202626    1.199074    0.022541
     13          1           0        2.320675    0.597470   -1.437199
     14          1           0        2.949192   -0.595071   -0.205586
 ---------------------------------------------------------------------
                    Distance matrix (angstroms):
                    1          2          3          4          5
     1  O    0.000000
     2  O    2.326782   0.000000
     3  C    2.427310   2.456497   0.000000
     4  C    2.951938   3.550414   1.514189   0.000000
     5  C    1.425317   2.614327   3.703578   4.291053   0.000000
     6  C    1.399491   1.269020   1.498269   2.517928   2.348566
     7  H    2.713889   3.117151   1.098788   2.138321   4.014183
     8  H    3.372120   2.597957   1.116623   2.161782   4.493581
     9  H    3.945267   4.482288   2.173968   1.113860   5.330469
    10  H    2.612252   3.925297   2.177941   1.117216   3.928510
    11  H    3.389591   3.600224   2.177457   1.119210   4.536494
    12  H    2.054207   3.614282   4.444635   4.724403   1.104665
    13  H    2.089190   3.029477   4.189171   5.008427   1.117048
    14  H    2.096237   2.181389   3.909550   4.552167   1.120347
                    6          7          8          9         10
     6  C    0.000000
     7  H    2.119315   0.000000
     8  H    2.146510   1.780395   0.000000
     9  H    3.477533   2.449167   2.531230   0.000000
    10  H    2.751642   2.539409   3.100721   1.810351   0.000000
    11  H    2.842695   3.076508   2.492221   1.807677   1.809176
    12  H    3.228482   4.752547   5.327926   5.758092   4.137934
    13  H    2.883467   4.262094   4.936033   5.969625   4.675578
    14  H    2.434864   4.440188   4.480980   5.637692   4.395146
                   11         12         13         14
    11  H    0.000000
    12  H    4.919188   0.000000
    13  H    5.401550   1.808482   0.000000
    14  H    4.561964   1.826260   1.825940   0.000000
 Stoichiometry    C4H8O2
 Framework group  C1[X(C4H8O2)]
 Deg. of freedom    36
 Full point group                 C1      NOp   1
 Largest Abelian subgroup         C1      NOp   1
 Largest concise Abelian subgroup C1      NOp   1
                         Standard orientation:                         
 ---------------------------------------------------------------------
 Center     Atomic      Atomic             Coordinates (Angstroms)
 Number     Number       Type             X           Y           Z
 ---------------------------------------------------------------------
      1          8           0        0.743811   -0.754058    0.228875
      2          8           0        0.642831    1.513548   -0.282672
      3          6           0       -1.400403    0.362236    0.448115
      4          6           0       -2.148423   -0.679350   -0.357076
      5          6           0        2.132344   -0.623934   -0.065358
      6          6           0        0.052943    0.455767    0.096200
      7          1           0       -1.483584    0.112115    1.514819
      8          1           0       -1.882173    1.359936    0.309051
      9          1           0       -3.195224   -0.783209    0.009128
     10          1           0       -1.646797   -1.674799   -0.282095
     11          1           0       -2.185249   -0.391401   -1.437983
     12          1           0        2.486084   -1.589852   -0.468046
     13          1           0        2.699148   -0.390218    0.868400
     14          1           0        2.295894    0.193192   -0.814181
 ---------------------------------------------------------------------
 Rotational constants (GHZ):           6.2744082           2.4800634           1.9469944
 Leave Link  202 at Tue Apr  9 01:48:21 2019, MaxMem=   671088640 cpu:               0.2 elap:               0.0
 (Enter /shared/centos7/gaussian/g16/l301.exe)
 Standard basis: 6-311+G(2df,2p) (5D, 7F)
 Ernie: Thresh=  0.10000D-02 Tol=  0.10000D-05 Strict=F.
 There are   306 symmetry adapted cartesian basis functions of A   symmetry.
 There are   276 symmetry adapted basis functions of A   symmetry.
   276 basis functions,   400 primitive gaussians,   306 cartesian basis functions
    24 alpha electrons       24 beta electrons
       nuclear repulsion energy       243.3929909770 Hartrees.
 IExCor= 4336 DFT=T Ex+Corr=M062X ExCW=0 ScaHFX=  0.540000
 ScaDFX=  1.000000  1.000000  1.000000  1.000000 ScalE2=  1.000000  1.000000
 IRadAn=      5 IRanWt=     -1 IRanGd=            0 ICorTp=0 IEmpDi=  4
 NAtoms=   14 NActive=   14 NUniq=   14 SFac= 1.00D+00 NAtFMM=   60 NAOKFM=F Big=F
 Integral buffers will be    131072 words long.
 Raffenetti 2 integral format.
 Two-electron integral symmetry is turned on.
 Leave Link  301 at Tue Apr  9 01:48:21 2019, MaxMem=   671088640 cpu:               1.3 elap:               0.1
 (Enter /shared/centos7/gaussian/g16/l302.exe)
 NPDir=0 NMtPBC=     1 NCelOv=     1 NCel=       1 NClECP=     1 NCelD=      1
         NCelK=      1 NCelE2=     1 NClLst=     1 CellRange=     0.0.
 One-electron integrals computed using PRISM.
 One-electron integral symmetry used in STVInt
 NBasis=   276 RedAO= T EigKep=  2.86D-05  NBF=   276
 NBsUse=   276 1.00D-06 EigRej= -1.00D+00 NBFU=   276
 Precomputing XC quadrature grid using
 IXCGrd= 4 IRadAn=           5 IRanWt=          -1 IRanGd=           0 AccXCQ= 0.00D+00.
 Generated NRdTot=       0 NPtTot=           0 NUsed=           0 NTot=          32
 NSgBfM=   306   306   306   306   306 MxSgAt=    14 MxSgA2=    14.
 Leave Link  302 at Tue Apr  9 01:48:21 2019, MaxMem=   671088640 cpu:               6.7 elap:               0.4
 (Enter /shared/centos7/gaussian/g16/l303.exe)
 DipDrv:  MaxL=1.
 Leave Link  303 at Tue Apr  9 01:48:21 2019, MaxMem=   671088640 cpu:               0.8 elap:               0.1
 (Enter /shared/centos7/gaussian/g16/l401.exe)
 ExpMin= 4.38D-02 ExpMax= 8.59D+03 ExpMxC= 1.30D+03 IAcc=3 IRadAn=         5 AccDes= 0.00D+00
 Harris functional with IExCor= 1009 and IRadAn=       5 diagonalized for initial guess.
 HarFok:  IExCor= 1009 AccDes= 0.00D+00 IRadAn=         5 IDoV= 1 UseB2=F ITyADJ=14
 ICtDFT=  3500011 ScaDFX=  1.000000  1.000000  1.000000  1.000000
 FoFCou: FMM=F IPFlag=           0 FMFlag=      100000 FMFlg1=           0
         NFxFlg=           0 DoJE=T BraDBF=F KetDBF=T FulRan=T
         wScrn=  0.000000 ICntrl=       500 IOpCl=  0 I1Cent=   200000004 NGrid=           0
         NMat0=    1 NMatS0=      1 NMatT0=    0 NMatD0=    1 NMtDS0=    0 NMtDT0=    0
 Petite list used in FoFCou.
 Harris En= -307.546884624190    
 JPrj=0 DoOrth=F DoCkMO=F.
 Leave Link  401 at Tue Apr  9 01:48:22 2019, MaxMem=   671088640 cpu:              21.8 elap:               1.1
 (Enter /shared/centos7/gaussian/g16/l502.exe)
 Integral symmetry usage will be decided dynamically.
 Closed shell SCF:
 Using DIIS extrapolation, IDIIS=  1040.
 NGot=   671088640 LenX=   670892442 LenY=   670798365
 Requested convergence on RMS density matrix=1.00D-08 within 128 cycles.
 Requested convergence on MAX density matrix=1.00D-06.
 Requested convergence on             energy=1.00D-06.
 No special actions if energy rises.
 Fock matrices will be formed incrementally for  20 cycles.

 Cycle   1  Pass 1  IDiag  1:
 FoFJK:  IHMeth= 1 ICntrl=       0 DoSepK=F KAlg= 0 I1Cent=           0 FoldK=F
 IRaf= 960000000 NMat=       1 IRICut=       1 DoRegI=T DoRafI=F ISym2E= 0 IDoP0=0 IntGTp=1.
 FoFCou: FMM=F IPFlag=           0 FMFlag=      100000 FMFlg1=           0
         NFxFlg=           0 DoJE=F BraDBF=F KetDBF=F FulRan=T
         wScrn=  0.000000 ICntrl=         0 IOpCl=  0 I1Cent=           0 NGrid=           0
         NMat0=    1 NMatS0=      1 NMatT0=    0 NMatD0=    1 NMtDS0=    0 NMtDT0=    0
 Symmetry not used in FoFCou.
 E= -307.461224679904    
 DIIS: error= 2.61D-02 at cycle   1 NSaved=   1.
 NSaved= 1 IEnMin= 1 EnMin= -307.461224679904     IErMin= 1 ErrMin= 2.61D-02
 ErrMax= 2.61D-02  0.00D+00 EMaxC= 1.00D-01 BMatC= 2.70D-01 BMatP= 2.70D-01
 IDIUse=3 WtCom= 7.39D-01 WtEn= 2.61D-01
 Coeff-Com:  0.100D+01
 Coeff-En:   0.100D+01
 Coeff:      0.100D+01
 Gap=     0.322 Goal=   None    Shift=    0.000
 GapD=    0.322 DampG=1.000 DampE=0.500 DampFc=0.5000 IDamp=-1.
 Damping current iteration by 5.00D-01
 RMSDP=2.58D-03 MaxDP=1.03D-01              OVMax= 1.99D-01

 Cycle   2  Pass 1  IDiag  1:
 RMSU=  1.29D-03    CP:  9.91D-01
 E= -307.550804890422     Delta-E=       -0.089580210518 Rises=F Damp=T
 DIIS: error= 5.80D-03 at cycle   2 NSaved=   2.
 NSaved= 2 IEnMin= 2 EnMin= -307.550804890422     IErMin= 2 ErrMin= 5.80D-03
 ErrMax= 5.80D-03  0.00D+00 EMaxC= 1.00D-01 BMatC= 2.45D-02 BMatP= 2.70D-01
 IDIUse=3 WtCom= 9.42D-01 WtEn= 5.80D-02
 Coeff-Com:  0.175D-01 0.983D+00
 Coeff-En:   0.520D-01 0.948D+00
 Coeff:      0.195D-01 0.981D+00
 Gap=     0.382 Goal=   None    Shift=    0.000
 RMSDP=9.67D-04 MaxDP=7.50D-02 DE=-8.96D-02 OVMax= 1.10D-01

 Cycle   3  Pass 1  IDiag  1:
 RMSU=  9.09D-04    CP:  9.65D-01  8.38D-01
 E= -307.643787417418     Delta-E=       -0.092982526996 Rises=F Damp=F
 DIIS: error= 7.43D-03 at cycle   3 NSaved=   3.
 NSaved= 3 IEnMin= 3 EnMin= -307.643787417418     IErMin= 2 ErrMin= 5.80D-03
 ErrMax= 7.43D-03  0.00D+00 EMaxC= 1.00D-01 BMatC= 2.01D-02 BMatP= 2.45D-02
 IDIUse=3 WtCom= 9.26D-01 WtEn= 7.43D-02
 Coeff-Com: -0.708D-01 0.500D+00 0.571D+00
 Coeff-En:   0.000D+00 0.000D+00 0.100D+01
 Coeff:     -0.655D-01 0.463D+00 0.603D+00
 Gap=     0.376 Goal=   None    Shift=    0.000
 RMSDP=4.42D-04 MaxDP=1.66D-02 DE=-9.30D-02 OVMax= 5.41D-02

 Cycle   4  Pass 1  IDiag  1:
 RMSU=  3.69D-04    CP:  9.66D-01  9.88D-01  8.38D-01
 E= -307.656033160153     Delta-E=       -0.012245742734 Rises=F Damp=F
 DIIS: error= 2.23D-03 at cycle   4 NSaved=   4.
 NSaved= 4 IEnMin= 4 EnMin= -307.656033160153     IErMin= 4 ErrMin= 2.23D-03
 ErrMax= 2.23D-03  0.00D+00 EMaxC= 1.00D-01 BMatC= 3.52D-03 BMatP= 2.01D-02
 IDIUse=3 WtCom= 9.78D-01 WtEn= 2.23D-02
 Coeff-Com: -0.293D-01 0.836D-01 0.326D+00 0.619D+00
 Coeff-En:   0.000D+00 0.000D+00 0.156D+00 0.844D+00
 Coeff:     -0.286D-01 0.818D-01 0.323D+00 0.624D+00
 Gap=     0.363 Goal=   None    Shift=    0.000
 RMSDP=1.60D-04 MaxDP=6.39D-03 DE=-1.22D-02 OVMax= 1.37D-02

 Cycle   5  Pass 1  IDiag  1:
 RMSU=  7.18D-05    CP:  9.63D-01  9.42D-01  9.25D-01  7.36D-01
 E= -307.658686250138     Delta-E=       -0.002653089986 Rises=F Damp=F
 DIIS: error= 4.02D-04 at cycle   5 NSaved=   5.
 NSaved= 5 IEnMin= 5 EnMin= -307.658686250138     IErMin= 5 ErrMin= 4.02D-04
 ErrMax= 4.02D-04  0.00D+00 EMaxC= 1.00D-01 BMatC= 9.06D-05 BMatP= 3.52D-03
 IDIUse=3 WtCom= 9.96D-01 WtEn= 4.02D-03
 Coeff-Com: -0.875D-02 0.173D-01 0.118D+00 0.270D+00 0.604D+00
 Coeff-En:   0.000D+00 0.000D+00 0.000D+00 0.000D+00 0.100D+01
 Coeff:     -0.871D-02 0.172D-01 0.117D+00 0.269D+00 0.606D+00
 Gap=     0.362 Goal=   None    Shift=    0.000
 RMSDP=2.89D-05 MaxDP=1.88D-03 DE=-2.65D-03 OVMax= 3.10D-03

 Cycle   6  Pass 1  IDiag  1:
 RMSU=  2.48D-05    CP:  9.62D-01  9.40D-01  9.34D-01  7.59D-01  9.37D-01
 E= -307.658751937129     Delta-E=       -0.000065686991 Rises=F Damp=F
 DIIS: error= 1.46D-04 at cycle   6 NSaved=   6.
 NSaved= 6 IEnMin= 6 EnMin= -307.658751937129     IErMin= 6 ErrMin= 1.46D-04
 ErrMax= 1.46D-04  0.00D+00 EMaxC= 1.00D-01 BMatC= 1.14D-05 BMatP= 9.06D-05
 IDIUse=3 WtCom= 9.99D-01 WtEn= 1.46D-03
 Coeff-Com: -0.270D-03-0.286D-02 0.154D-01 0.466D-01 0.282D+00 0.659D+00
 Coeff-En:   0.000D+00 0.000D+00 0.000D+00 0.000D+00 0.000D+00 0.100D+01
 Coeff:     -0.270D-03-0.286D-02 0.153D-01 0.465D-01 0.282D+00 0.659D+00
 Gap=     0.362 Goal=   None    Shift=    0.000
 RMSDP=1.12D-05 MaxDP=5.19D-04 DE=-6.57D-05 OVMax= 6.81D-04

 Cycle   7  Pass 1  IDiag  1:
 RMSU=  7.89D-06    CP:  9.62D-01  9.37D-01  9.39D-01  7.63D-01  1.00D+00
                    CP:  9.52D-01
 E= -307.658760931779     Delta-E=       -0.000008994650 Rises=F Damp=F
 DIIS: error= 3.90D-05 at cycle   7 NSaved=   7.
 NSaved= 7 IEnMin= 7 EnMin= -307.658760931779     IErMin= 7 ErrMin= 3.90D-05
 ErrMax= 3.90D-05  0.00D+00 EMaxC= 1.00D-01 BMatC= 7.04D-07 BMatP= 1.14D-05
 IDIUse=1 WtCom= 1.00D+00 WtEn= 0.00D+00
 Coeff-Com:  0.131D-02-0.329D-02-0.102D-01-0.251D-01 0.296D-02 0.133D+00
 Coeff-Com:  0.901D+00
 Coeff:      0.131D-02-0.329D-02-0.102D-01-0.251D-01 0.296D-02 0.133D+00
 Coeff:      0.901D+00
 Gap=     0.362 Goal=   None    Shift=    0.000
 RMSDP=6.31D-06 MaxDP=3.87D-04 DE=-8.99D-06 OVMax= 5.02D-04

 Cycle   8  Pass 1  IDiag  1:
 RMSU=  3.03D-06    CP:  9.62D-01  9.35D-01  9.42D-01  7.65D-01  1.05D+00
                    CP:  1.02D+00  1.13D+00
 E= -307.658761885753     Delta-E=       -0.000000953974 Rises=F Damp=F
 DIIS: error= 1.78D-05 at cycle   8 NSaved=   8.
 NSaved= 8 IEnMin= 8 EnMin= -307.658761885753     IErMin= 8 ErrMin= 1.78D-05
 ErrMax= 1.78D-05  0.00D+00 EMaxC= 1.00D-01 BMatC= 1.31D-07 BMatP= 7.04D-07
 IDIUse=1 WtCom= 1.00D+00 WtEn= 0.00D+00
 Coeff-Com:  0.517D-03-0.879D-03-0.458D-02-0.145D-01-0.317D-01-0.435D-01
 Coeff-Com:  0.306D+00 0.789D+00
 Coeff:      0.517D-03-0.879D-03-0.458D-02-0.145D-01-0.317D-01-0.435D-01
 Coeff:      0.306D+00 0.789D+00
 Gap=     0.362 Goal=   None    Shift=    0.000
 RMSDP=2.02D-06 MaxDP=6.95D-05 DE=-9.54D-07 OVMax= 1.62D-04

 Cycle   9  Pass 1  IDiag  1:
 RMSU=  9.28D-07    CP:  9.62D-01  9.34D-01  9.43D-01  7.64D-01  1.06D+00
                    CP:  1.04D+00  1.26D+00  1.08D+00
 E= -307.658762047367     Delta-E=       -0.000000161613 Rises=F Damp=F
 DIIS: error= 3.44D-06 at cycle   9 NSaved=   9.
 NSaved= 9 IEnMin= 9 EnMin= -307.658762047367     IErMin= 9 ErrMin= 3.44D-06
 ErrMax= 3.44D-06  0.00D+00 EMaxC= 1.00D-01 BMatC= 5.61D-09 BMatP= 1.31D-07
 IDIUse=1 WtCom= 1.00D+00 WtEn= 0.00D+00
 Coeff-Com: -0.788D-04 0.205D-03 0.965D-03 0.151D-02-0.184D-02-0.134D-01
 Coeff-Com: -0.648D-01 0.321D-01 0.105D+01
 Coeff:     -0.788D-04 0.205D-03 0.965D-03 0.151D-02-0.184D-02-0.134D-01
 Coeff:     -0.648D-01 0.321D-01 0.105D+01
 Gap=     0.362 Goal=   None    Shift=    0.000
 RMSDP=5.87D-07 MaxDP=2.33D-05 DE=-1.62D-07 OVMax= 6.48D-05

 Cycle  10  Pass 1  IDiag  1:
 RMSU=  2.74D-07    CP:  9.62D-01  9.34D-01  9.43D-01  7.64D-01  1.06D+00
                    CP:  1.05D+00  1.29D+00  1.19D+00  1.12D+00
 E= -307.658762057251     Delta-E=       -0.000000009884 Rises=F Damp=F
 DIIS: error= 8.00D-07 at cycle  10 NSaved=  10.
 NSaved=10 IEnMin=10 EnMin= -307.658762057251     IErMin=10 ErrMin= 8.00D-07
 ErrMax= 8.00D-07  0.00D+00 EMaxC= 1.00D-01 BMatC= 4.62D-10 BMatP= 5.61D-09
 IDIUse=1 WtCom= 1.00D+00 WtEn= 0.00D+00
 Coeff-Com: -0.437D-04 0.926D-04 0.523D-03 0.117D-02 0.128D-02-0.663D-03
 Coeff-Com: -0.330D-01-0.438D-01 0.255D+00 0.820D+00
 Coeff:     -0.437D-04 0.926D-04 0.523D-03 0.117D-02 0.128D-02-0.663D-03
 Coeff:     -0.330D-01-0.438D-01 0.255D+00 0.820D+00
 Gap=     0.362 Goal=   None    Shift=    0.000
 RMSDP=1.17D-07 MaxDP=4.55D-06 DE=-9.88D-09 OVMax= 1.06D-05

 Cycle  11  Pass 1  IDiag  1:
 RMSU=  6.89D-08    CP:  9.62D-01  9.34D-01  9.43D-01  7.64D-01  1.06D+00
                    CP:  1.05D+00  1.30D+00  1.21D+00  1.19D+00  1.03D+00
 E= -307.658762057824     Delta-E=       -0.000000000573 Rises=F Damp=F
 DIIS: error= 2.95D-07 at cycle  11 NSaved=  11.
 NSaved=11 IEnMin=11 EnMin= -307.658762057824     IErMin=11 ErrMin= 2.95D-07
 ErrMax= 2.95D-07  0.00D+00 EMaxC= 1.00D-01 BMatC= 4.31D-11 BMatP= 4.62D-10
 IDIUse=1 WtCom= 1.00D+00 WtEn= 0.00D+00
 Coeff-Com: -0.431D-05 0.637D-05 0.802D-04 0.205D-03 0.508D-03 0.774D-03
 Coeff-Com: -0.377D-02-0.150D-01-0.180D-01 0.200D+00 0.835D+00
 Coeff:     -0.431D-05 0.637D-05 0.802D-04 0.205D-03 0.508D-03 0.774D-03
 Coeff:     -0.377D-02-0.150D-01-0.180D-01 0.200D+00 0.835D+00
 Gap=     0.362 Goal=   None    Shift=    0.000
 RMSDP=3.19D-08 MaxDP=1.59D-06 DE=-5.73D-10 OVMax= 2.84D-06

 Cycle  12  Pass 1  IDiag  1:
 RMSU=  2.16D-08    CP:  9.62D-01  9.34D-01  9.43D-01  7.64D-01  1.06D+00
                    CP:  1.05D+00  1.30D+00  1.21D+00  1.20D+00  1.10D+00
                    CP:  1.09D+00
 E= -307.658762057870     Delta-E=       -0.000000000046 Rises=F Damp=F
 DIIS: error= 7.37D-08 at cycle  12 NSaved=  12.
 NSaved=12 IEnMin=12 EnMin= -307.658762057870     IErMin=12 ErrMin= 7.37D-08
 ErrMax= 7.37D-08  0.00D+00 EMaxC= 1.00D-01 BMatC= 4.22D-12 BMatP= 4.31D-11
 IDIUse=1 WtCom= 1.00D+00 WtEn= 0.00D+00
 Coeff-Com:  0.274D-05-0.622D-05-0.175D-04-0.376D-04 0.513D-04 0.231D-03
 Coeff-Com:  0.168D-02-0.745D-03-0.280D-01-0.110D-01 0.268D+00 0.770D+00
 Coeff:      0.274D-05-0.622D-05-0.175D-04-0.376D-04 0.513D-04 0.231D-03
 Coeff:      0.168D-02-0.745D-03-0.280D-01-0.110D-01 0.268D+00 0.770D+00
 Gap=     0.362 Goal=   None    Shift=    0.000
 RMSDP=1.15D-08 MaxDP=6.03D-07 DE=-4.56D-11 OVMax= 6.78D-07

 Cycle  13  Pass 1  IDiag  1:
 RMSU=  7.31D-09    CP:  9.62D-01  9.34D-01  9.43D-01  7.64D-01  1.06D+00
                    CP:  1.05D+00  1.30D+00  1.21D+00  1.20D+00  1.12D+00
                    CP:  1.17D+00  1.05D+00
 E= -307.658762057876     Delta-E=       -0.000000000007 Rises=F Damp=F
 DIIS: error= 1.73D-08 at cycle  13 NSaved=  13.
 NSaved=13 IEnMin=13 EnMin= -307.658762057876     IErMin=13 ErrMin= 1.73D-08
 ErrMax= 1.73D-08  0.00D+00 EMaxC= 1.00D-01 BMatC= 1.61D-13 BMatP= 4.22D-12
 IDIUse=1 WtCom= 1.00D+00 WtEn= 0.00D+00
 Coeff-Com:  0.736D-06-0.156D-05-0.793D-05-0.194D-04-0.207D-04-0.197D-04
 Coeff-Com:  0.593D-03 0.102D-02-0.403D-02-0.170D-01-0.118D-01 0.136D+00
 Coeff-Com:  0.896D+00
 Coeff:      0.736D-06-0.156D-05-0.793D-05-0.194D-04-0.207D-04-0.197D-04
 Coeff:      0.593D-03 0.102D-02-0.403D-02-0.170D-01-0.118D-01 0.136D+00
 Coeff:      0.896D+00
 Gap=     0.362 Goal=   None    Shift=    0.000
 RMSDP=3.12D-09 MaxDP=1.23D-07 DE=-6.59D-12 OVMax= 3.79D-07

 SCF Done:  E(RM062X) =  -307.658762058     A.U. after   13 cycles
            NFock= 13  Conv=0.31D-08     -V/T= 2.0055
 KE= 3.059716150373D+02 PE=-1.206015799991D+03 EE= 3.489924319184D+02
 Leave Link  502 at Tue Apr  9 01:48:52 2019, MaxMem=   671088640 cpu:             599.7 elap:              30.0
 (Enter /shared/centos7/gaussian/g16/l801.exe)
 DoSCS=F DFT=T ScalE2(SS,OS)=  1.000000  1.000000
 Range of M.O.s used for correlation:     1   276
 NBasis=   276 NAE=    24 NBE=    24 NFC=     0 NFV=     0
 NROrb=    276 NOA=    24 NOB=    24 NVA=   252 NVB=   252

 **** Warning!!: The largest alpha MO coefficient is  0.37866099D+02

 Leave Link  801 at Tue Apr  9 01:48:52 2019, MaxMem=   671088640 cpu:               0.3 elap:               0.0
 (Enter /shared/centos7/gaussian/g16/l1101.exe)
 Using compressed storage, NAtomX=    14.
 Will process     15 centers per pass.
 Leave Link 1101 at Tue Apr  9 01:48:53 2019, MaxMem=   671088640 cpu:               6.6 elap:               0.3
 (Enter /shared/centos7/gaussian/g16/l1102.exe)
 Symmetrizing basis deriv contribution to polar:
 IMax=3 JMax=2 DiffMx= 0.00D+00
 Leave Link 1102 at Tue Apr  9 01:48:53 2019, MaxMem=   671088640 cpu:               0.6 elap:               0.1
 (Enter /shared/centos7/gaussian/g16/l1110.exe)
 Forming Gx(P) for the SCF density, NAtomX=    14.
 Integral derivatives from FoFJK, PRISM(SPDF).
 Do as many integral derivatives as possible in FoFJK.
 G2DrvN: MDV=     671087496.
 G2DrvN: will do    15 centers at a time, making    1 passes.
 Calling FoFCou, ICntrl=  3107 FMM=F I1Cent=   0 AccDes= 0.00D+00.
 FoFJK:  IHMeth= 1 ICntrl=    3107 DoSepK=F KAlg= 0 I1Cent=           0 FoldK=F
 IRaf=         0 NMat=       1 IRICut=       1 DoRegI=T DoRafI=F ISym2E= 0 IDoP0=0 IntGTp=1.
 FoFCou: FMM=F IPFlag=           0 FMFlag=      100000 FMFlg1=           0
         NFxFlg=           0 DoJE=F BraDBF=F KetDBF=F FulRan=T
         wScrn=  0.000000 ICntrl=      3107 IOpCl=  0 I1Cent=           0 NGrid=           0
         NMat0=    1 NMatS0=      1 NMatT0=    0 NMatD0=    1 NMtDS0=    0 NMtDT0=    0
 Symmetry not used in FoFCou.
 End of G2Drv F.D. properties file   721 does not exist.
 End of G2Drv F.D. properties file   722 does not exist.
 End of G2Drv F.D. properties file   788 does not exist.
 Leave Link 1110 at Tue Apr  9 01:49:47 2019, MaxMem=   671088640 cpu:            1085.8 elap:              54.3
 (Enter /shared/centos7/gaussian/g16/l1002.exe)
 Minotr:  Closed shell wavefunction.
          IDoAtm=11111111111111
          Direct CPHF calculation.
          Differentiating once with respect to nuclear coordinates.
          Requested convergence is 1.0D-08 RMS, and 1.0D-07 maximum.
          Secondary convergence is 1.0D-12 RMS, and 1.0D-12 maximum.
          NewPWx=T KeepS1=F KeepF1=F KeepIn=T MapXYZ=F SortEE=F KeepMc=T.
         4271 words used for storage of precomputed grid.
 Two-electron integrals replicated using symmetry.
          MDV=     671088640 using IRadAn=       1.
          Solving linear equations simultaneously, MaxMat=     380.
 FoF2E skips out because all densities are zero.
 CalDSu exits because no D1Ps are significant.
 FoFJK:  IHMeth= 1 ICntrl=       0 DoSepK=F KAlg= 0 I1Cent=           0 FoldK=F
 IRaf= 950000000 NMat=      42 IRICut=     105 DoRegI=T DoRafI=T ISym2E= 2 IDoP0=3 IntGTp=3.
 FoFCou: FMM=F IPFlag=           0 FMFlag=      100000 FMFlg1=           0
         NFxFlg=           0 DoJE=F BraDBF=F KetDBF=F FulRan=T
         wScrn=  0.000000 ICntrl=         0 IOpCl=  0 I1Cent=           0 NGrid=           0
         NMat0=   42 NMatS0=     42 NMatT0=    0 NMatD0=   42 NMtDS0=    0 NMtDT0=    0
 Integrals replicated using symmetry in FoFCou.
 Raff kept on since  93.21% of shell-pairs survive, threshold=   0.20 IRatSp=93.
          There are    45 degrees of freedom in the 1st order CPHF.  IDoFFX=6 NUNeed=     0.
     39 vectors produced by pass  0 Test12= 1.34D-14 2.22D-09 XBig12= 7.08D-02 5.72D-02.
 AX will form    39 AO Fock derivatives at one time.
     39 vectors produced by pass  1 Test12= 1.34D-14 2.22D-09 XBig12= 9.96D-03 2.56D-02.
     39 vectors produced by pass  2 Test12= 1.34D-14 2.22D-09 XBig12= 3.20D-04 1.81D-03.
     39 vectors produced by pass  3 Test12= 1.34D-14 2.22D-09 XBig12= 3.79D-06 2.02D-04.
     39 vectors produced by pass  4 Test12= 1.34D-14 2.22D-09 XBig12= 3.14D-08 1.43D-05.
     39 vectors produced by pass  5 Test12= 1.34D-14 2.22D-09 XBig12= 1.64D-10 1.26D-06.
     23 vectors produced by pass  6 Test12= 1.34D-14 2.22D-09 XBig12= 6.85D-13 8.13D-08.
      3 vectors produced by pass  7 Test12= 1.34D-14 2.22D-09 XBig12= 2.73D-15 5.33D-09.
      2 vectors produced by pass  8 Test12= 1.34D-14 2.22D-09 XBig12= 4.56D-16 3.32D-09.
 InvSVY:  IOpt=1 It=  1 EMax= 1.78D-15
 Solved reduced A of dimension   262 with    39 vectors.
 End of Minotr F.D. properties file   721 does not exist.
 End of Minotr F.D. properties file   722 does not exist.
 End of Minotr F.D. properties file   788 does not exist.
 Leave Link 1002 at Tue Apr  9 01:51:06 2019, MaxMem=   671088640 cpu:            1583.9 elap:              79.2
 (Enter /shared/centos7/gaussian/g16/l601.exe)
 Copying SCF densities to generalized density rwf, IOpCl= 0 IROHF=0.

 **********************************************************************

            Population analysis using the SCF density.

 **********************************************************************

 Orbital symmetries:
       Occupied  (A) (A) (A) (A) (A) (A) (A) (A) (A) (A) (A) (A)
                 (A) (A) (A) (A) (A) (A) (A) (A) (A) (A) (A) (A)
       Virtual   (A) (A) (A) (A) (A) (A) (A) (A) (A) (A) (A) (A)
                 (A) (A) (A) (A) (A) (A) (A) (A) (A) (A) (A) (A)
                 (A) (A) (A) (A) (A) (A) (A) (A) (A) (A) (A) (A)
                 (A) (A) (A) (A) (A) (A) (A) (A) (A) (A) (A) (A)
                 (A) (A) (A) (A) (A) (A) (A) (A) (A) (A) (A) (A)
                 (A) (A) (A) (A) (A) (A) (A) (A) (A) (A) (A) (A)
                 (A) (A) (A) (A) (A) (A) (A) (A) (A) (A) (A) (A)
                 (A) (A) (A) (A) (A) (A) (A) (A) (A) (A) (A) (A)
                 (A) (A) (A) (A) (A) (A) (A) (A) (A) (A) (A) (A)
                 (A) (A) (A) (A) (A) (A) (A) (A) (A) (A) (A) (A)
                 (A) (A) (A) (A) (A) (A) (A) (A) (A) (A) (A) (A)
                 (A) (A) (A) (A) (A) (A) (A) (A) (A) (A) (A) (A)
                 (A) (A) (A) (A) (A) (A) (A) (A) (A) (A) (A) (A)
                 (A) (A) (A) (A) (A) (A) (A) (A) (A) (A) (A) (A)
                 (A) (A) (A) (A) (A) (A) (A) (A) (A) (A) (A) (A)
                 (A) (A) (A) (A) (A) (A) (A) (A) (A) (A) (A) (A)
                 (A) (A) (A) (A) (A) (A) (A) (A) (A) (A) (A) (A)
                 (A) (A) (A) (A) (A) (A) (A) (A) (A) (A) (A) (A)
                 (A) (A) (A) (A) (A) (A) (A) (A) (A) (A) (A) (A)
                 (A) (A) (A) (A) (A) (A) (A) (A) (A) (A) (A) (A)
                 (A) (A) (A) (A) (A) (A) (A) (A) (A) (A) (A) (A)
 The electronic state is 1-A.
 Alpha  occ. eigenvalues --  -19.67633 -19.62020 -10.68732 -10.59123 -10.56317
 Alpha  occ. eigenvalues --  -10.54791  -1.21533  -1.11883  -0.90116  -0.80597
 Alpha  occ. eigenvalues --   -0.73671  -0.64755  -0.58280  -0.56585  -0.55798
 Alpha  occ. eigenvalues --   -0.51974  -0.49606  -0.47322  -0.44750  -0.43490
 Alpha  occ. eigenvalues --   -0.42054  -0.41388  -0.37276  -0.35486
 Alpha virt. eigenvalues --    0.00753   0.02064   0.03104   0.03334   0.04180
 Alpha virt. eigenvalues --    0.04716   0.06044   0.06351   0.08198   0.08460
 Alpha virt. eigenvalues --    0.09478   0.09969   0.10505   0.12692   0.12986
 Alpha virt. eigenvalues --    0.14816   0.15909   0.18239   0.18736   0.19524
 Alpha virt. eigenvalues --    0.20489   0.21374   0.21847   0.24213   0.24902
 Alpha virt. eigenvalues --    0.25611   0.26730   0.27329   0.28058   0.28535
 Alpha virt. eigenvalues --    0.30396   0.32274   0.33803   0.34234   0.35611
 Alpha virt. eigenvalues --    0.37872   0.38554   0.42485   0.43522   0.44909
 Alpha virt. eigenvalues --    0.46550   0.46904   0.49110   0.51389   0.53103
 Alpha virt. eigenvalues --    0.53383   0.54978   0.56830   0.57561   0.57742
 Alpha virt. eigenvalues --    0.59280   0.59798   0.61604   0.63281   0.64765
 Alpha virt. eigenvalues --    0.66110   0.67344   0.68093   0.69002   0.72254
 Alpha virt. eigenvalues --    0.76557   0.76912   0.79615   0.83136   0.83425
 Alpha virt. eigenvalues --    0.86551   0.87744   0.91638   0.92278   0.95929
 Alpha virt. eigenvalues --    0.96921   0.98595   1.02971   1.04539   1.07409
 Alpha virt. eigenvalues --    1.08714   1.09258   1.11076   1.12943   1.14896
 Alpha virt. eigenvalues --    1.15257   1.16231   1.17369   1.18774   1.20486
 Alpha virt. eigenvalues --    1.21697   1.21832   1.23403   1.26737   1.28186
 Alpha virt. eigenvalues --    1.29067   1.31520   1.32231   1.35720   1.36870
 Alpha virt. eigenvalues --    1.39141   1.39636   1.41060   1.42260   1.43141
 Alpha virt. eigenvalues --    1.44865   1.45158   1.46563   1.48828   1.51151
 Alpha virt. eigenvalues --    1.52341   1.56162   1.58467   1.60148   1.61334
 Alpha virt. eigenvalues --    1.62186   1.67327   1.68878   1.69873   1.81265
 Alpha virt. eigenvalues --    1.84406   1.95760   2.03399   2.09341   2.14476
 Alpha virt. eigenvalues --    2.27025   2.31400   2.41991   2.42346   2.47268
 Alpha virt. eigenvalues --    2.49920   2.53266   2.55755   2.59120   2.63481
 Alpha virt. eigenvalues --    2.64946   2.67930   2.78012   2.79527   2.83871
 Alpha virt. eigenvalues --    2.84597   2.86319   2.94724   2.97206   2.98228
 Alpha virt. eigenvalues --    2.99221   3.03247   3.05186   3.05471   3.10272
 Alpha virt. eigenvalues --    3.10797   3.11651   3.13616   3.15756   3.16318
 Alpha virt. eigenvalues --    3.20486   3.23360   3.25304   3.27209   3.30310
 Alpha virt. eigenvalues --    3.31408   3.32844   3.36431   3.37810   3.39360
 Alpha virt. eigenvalues --    3.41879   3.44246   3.47874   3.49315   3.50873
 Alpha virt. eigenvalues --    3.51778   3.56804   3.59854   3.60798   3.62423
 Alpha virt. eigenvalues --    3.65307   3.66834   3.73248   3.75785   3.76718
 Alpha virt. eigenvalues --    3.79043   3.81884   3.82916   3.84308   3.88094
 Alpha virt. eigenvalues --    3.89584   3.93632   3.96106   3.97527   4.00290
 Alpha virt. eigenvalues --    4.05828   4.06856   4.09494   4.13286   4.15353
 Alpha virt. eigenvalues --    4.16819   4.21029   4.23228   4.25151   4.26336
 Alpha virt. eigenvalues --    4.27074   4.30361   4.32615   4.33613   4.41439
 Alpha virt. eigenvalues --    4.43577   4.45819   4.50486   4.52563   4.53604
 Alpha virt. eigenvalues --    4.57506   4.65655   4.87635   4.92425   5.10275
 Alpha virt. eigenvalues --    5.11133   5.15319   5.18605   5.20834   5.22174
 Alpha virt. eigenvalues --    5.25235   5.32485   5.35814   5.38096   5.42525
 Alpha virt. eigenvalues --    5.44925   5.46191   5.46953   5.50074   5.52112
 Alpha virt. eigenvalues --    5.56048   5.61337   5.70221   5.73973   5.82116
 Alpha virt. eigenvalues --    5.91844   6.14562   6.38096   6.53532   6.76387
 Alpha virt. eigenvalues --    6.83963   6.92460   6.97024   7.08907   7.18085
 Alpha virt. eigenvalues --    7.20258   7.29391   7.49201   7.59836   7.74264
 Alpha virt. eigenvalues --    7.78126  24.22394  24.31352  24.38588  24.61823
 Alpha virt. eigenvalues --   50.14196  50.20420
          Condensed to atoms (all electrons):
               1          2          3          4          5          6
     1  O    8.174812  -0.084013  -0.121092  -0.014610   0.126693   0.202015
     2  O   -0.084013   8.136608  -0.025936  -0.019099  -0.056720   0.447239
     3  C   -0.121092  -0.025936   6.080099   0.039713  -0.139140  -0.283087
     4  C   -0.014610  -0.019099   0.039713   5.266064   0.006132  -0.050111
     5  C    0.126693  -0.056720  -0.139140   0.006132   5.041271  -0.067049
     6  C    0.202015   0.447239  -0.283087  -0.050111  -0.067049   5.575259
     7  H   -0.004946   0.001987   0.427747  -0.054052   0.002354  -0.036233
     8  H    0.005838  -0.003664   0.477107  -0.016800  -0.001921  -0.088203
     9  H   -0.000078  -0.000739  -0.070493   0.409698   0.000135   0.043916
    10  H   -0.001690   0.000680  -0.002768   0.413517  -0.000659  -0.032337
    11  H   -0.001089   0.001217  -0.019272   0.407628   0.000444  -0.018394
    12  H   -0.055139   0.004135   0.005802   0.000321   0.415922   0.009527
    13  H   -0.047454  -0.002688  -0.003609   0.000403   0.435621   0.001739
    14  H   -0.028287  -0.011399  -0.002112  -0.001824   0.423877  -0.000871
               7          8          9         10         11         12
     1  O   -0.004946   0.005838  -0.000078  -0.001690  -0.001089  -0.055139
     2  O    0.001987  -0.003664  -0.000739   0.000680   0.001217   0.004135
     3  C    0.427747   0.477107  -0.070493  -0.002768  -0.019272   0.005802
     4  C   -0.054052  -0.016800   0.409698   0.413517   0.407628   0.000321
     5  C    0.002354  -0.001921   0.000135  -0.000659   0.000444   0.415922
     6  C   -0.036233  -0.088203   0.043916  -0.032337  -0.018394   0.009527
     7  H    0.520923  -0.027492  -0.005042  -0.004834   0.005759  -0.000014
     8  H   -0.027492   0.490454  -0.003864   0.004482  -0.007373   0.000012
     9  H   -0.005042  -0.003864   0.538982  -0.025008  -0.023553  -0.000001
    10  H   -0.004834   0.004482  -0.025008   0.527673  -0.030025   0.000060
    11  H    0.005759  -0.007373  -0.023553  -0.030025   0.540877  -0.000002
    12  H   -0.000014   0.000012  -0.000001   0.000060  -0.000002   0.553941
    13  H    0.000115  -0.000001  -0.000000  -0.000046   0.000003  -0.030966
    14  H   -0.000065   0.000024   0.000005   0.000037  -0.000017  -0.027785
              13         14
     1  O   -0.047454  -0.028287
     2  O   -0.002688  -0.011399
     3  C   -0.003609  -0.002112
     4  C    0.000403  -0.001824
     5  C    0.435621   0.423877
     6  C    0.001739  -0.000871
     7  H    0.000115  -0.000065
     8  H   -0.000001   0.000024
     9  H   -0.000000   0.000005
    10  H   -0.000046   0.000037
    11  H    0.000003  -0.000017
    12  H   -0.030966  -0.027785
    13  H    0.546255  -0.030154
    14  H   -0.030154   0.530616
 Mulliken charges:
               1
     1  O   -0.150960
     2  O   -0.387606
     3  C   -0.362959
     4  C   -0.386979
     5  C   -0.186961
     6  C    0.296591
     7  H    0.173794
     8  H    0.171399
     9  H    0.136043
    10  H    0.150918
    11  H    0.143797
    12  H    0.124187
    13  H    0.130783
    14  H    0.147954
 Sum of Mulliken charges =  -0.00000
 Mulliken charges with hydrogens summed into heavy atoms:
               1
     1  O   -0.150960
     2  O   -0.387606
     3  C   -0.017767
     4  C    0.043778
     5  C    0.215963
     6  C    0.296591
 APT charges:
               1
     1  O   -0.043924
     2  O   -0.310000
     3  C   -0.856106
     4  C   -1.173186
     5  C   -1.263618
     6  C    0.306834
     7  H    0.394995
     8  H    0.488263
     9  H    0.589898
    10  H    0.252917
    11  H    0.329535
    12  H    0.506972
    13  H    0.460748
    14  H    0.316671
 Sum of APT charges =  -0.00000
 APT charges with hydrogens summed into heavy atoms:
               1
     1  O   -0.043924
     2  O   -0.310000
     3  C    0.027153
     4  C   -0.000836
     5  C    0.020773
     6  C    0.306834
 Electronic spatial extent (au):  <R**2>=            668.0961
 Charge=             -0.0000 electrons
 Dipole moment (field-independent basis, Debye):
    X=             -0.8728    Y=             -1.7666    Z=              0.5408  Tot=              2.0433
 Quadrupole moment (field-independent basis, Debye-Ang):
   XX=            -31.3438   YY=            -42.4227   ZZ=            -36.5612
   XY=             -3.0523   XZ=             -0.5118   YZ=              1.5224
 Traceless Quadrupole moment (field-independent basis, Debye-Ang):
   XX=              5.4321   YY=             -5.6468   ZZ=              0.2147
   XY=             -3.0523   XZ=             -0.5118   YZ=              1.5224
 Octapole moment (field-independent basis, Debye-Ang**2):
  XXX=              9.8765  YYY=             -7.0833  ZZZ=              1.2230  XYY=             -0.9724
  XXY=             -2.7890  XXZ=              1.3701  XZZ=              1.5112  YZZ=              0.8502
  YYZ=              0.6578  XYZ=              1.1317
 Hexadecapole moment (field-independent basis, Debye-Ang**3):
 XXXX=           -567.6495 YYYY=           -218.6101 ZZZZ=            -75.8438 XXXY=             -9.1543
 XXXZ=             -3.7906 YYYX=            -10.9078 YYYZ=              2.3447 ZZZX=             -0.0334
 ZZZY=             -2.3398 XXYY=           -132.2214 XXZZ=           -110.0116 YYZZ=            -50.2233
 XXYZ=             -0.4799 YYXZ=             -2.0637 ZZXY=             -0.0149
 N-N= 2.433929909770D+02 E-N=-1.206015798774D+03  KE= 3.059716150373D+02
  Exact polarizability:   0.000   0.000   0.000   0.000   0.000   0.000
 Approx polarizability:  66.982   1.091  72.778  -1.750  -3.908  58.888
 No NMR shielding tensors so no spin-rotation constants.
 Leave Link  601 at Tue Apr  9 01:51:07 2019, MaxMem=   671088640 cpu:               4.7 elap:               0.3
 (Enter /shared/centos7/gaussian/g16/l701.exe)
 SCFChk:  SCF convergence  3.12D-09 required  1.00D-08
 ... and contract with generalized density number  0.
 Compute integral second derivatives.
 Entering OneElI...
 Calculate overlap and kinetic energy integrals
    NBasis = 306  MinDer = 2  MaxDer = 2
 Requested accuracy = 0.1000D-12
 PrmmSu-InSpLW:  IPartL=    0 NPrtUS=   20 NPrtUL=    1 DoSpLW=F IThBeg=    0 IThEnd=   19 NThAct=   20.
 PrsmSu:  NPrtUS=  20 ThrOK=T IAlg=1 NPAlg=1 LenDen=           0 ISkipM=0 DoSpLW=F IThBeg=    0 IThEnd=   19.
 Prism:   IPart=     0 DynPar=F LinDyn=F Incr=           1.
 PRISM was handed    33446105 working-precision words and  3899 shell-pairs
 PRISM was handed    33446105 working-precision words and  3899 shell-pairs
 PRISM was handed    33446105 working-precision words and  3899 shell-pairs
 PRISM was handed    33446105 working-precision words and  3899 shell-pairs
 PRISM was handed    33446105 working-precision words and  3899 shell-pairs
 PRISM was handed    33446105 working-precision words and  3899 shell-pairs
 PRISM was handed    33446105 working-precision words and  3899 shell-pairs
 PRISM was handed    33446105 working-precision words and  3899 shell-pairs
 PRISM was handed    33446105 working-precision words and  3899 shell-pairs
 PRISM was handed    33446105 working-precision words and  3899 shell-pairs
 PRISM was handed    33446105 working-precision words and  3899 shell-pairs
 PRISM was handed    33446105 working-precision words and  3899 shell-pairs
 PRISM was handed    33446105 working-precision words and  3899 shell-pairs
 PRISM was handed    33446105 working-precision words and  3899 shell-pairs
 PRISM was handed    33446105 working-precision words and  3899 shell-pairs
 PRISM was handed    33446105 working-precision words and  3899 shell-pairs
 PRISM was handed    33446105 working-precision words and  3899 shell-pairs
 PRISM was handed    33446105 working-precision words and  3899 shell-pairs
 PRISM was handed    33446105 working-precision words and  3899 shell-pairs
 PRISM was handed    33446105 working-precision words and  3899 shell-pairs
 IPart= 18 NShTot=         171 NBatch=          30 AvBLen=         5.7
 IPart= 19 NShTot=         171 NBatch=          30 AvBLen=         5.7
 IPart=  0 NShTot=         231 NBatch=          61 AvBLen=         3.8
 IPart=  1 NShTot=         222 NBatch=          55 AvBLen=         4.0
 IPart=  2 NShTot=         219 NBatch=          52 AvBLen=         4.2
 IPart= 10 NShTot=         193 NBatch=          34 AvBLen=         5.7
 IPart=  8 NShTot=         197 NBatch=          37 AvBLen=         5.3
 IPart=  3 NShTot=         216 NBatch=          50 AvBLen=         4.3
 IPart=  6 NShTot=         203 NBatch=          41 AvBLen=         5.0
 IPart=  5 NShTot=         211 NBatch=          45 AvBLen=         4.7
 IPart=  9 NShTot=         195 NBatch=          35 AvBLen=         5.6
 IPart= 12 NShTot=         184 NBatch=          32 AvBLen=         5.8
 IPart=  4 NShTot=         213 NBatch=          47 AvBLen=         4.5
 IPart=  7 NShTot=         198 NBatch=          37 AvBLen=         5.4
 IPart= 11 NShTot=         187 NBatch=          32 AvBLen=         5.8
 IPart= 13 NShTot=         182 NBatch=          31 AvBLen=         5.9
 IPart= 17 NShTot=         173 NBatch=          30 AvBLen=         5.8
 IPart= 14 NShTot=         181 NBatch=          31 AvBLen=         5.8
 IPart= 16 NShTot=         174 NBatch=          30 AvBLen=         5.8
 IPart= 15 NShTot=         178 NBatch=          30 AvBLen=         5.9
 PrSmSu:  NxtVal=             21.
 Entering OneElI...
 Calculate potential energy integrals
    NBasis = 306  MinDer = 2  MaxDer = 2
 Requested accuracy = 0.1000D-12
 PrmmSu-InSpLW:  IPartL=    0 NPrtUS=   20 NPrtUL=    1 DoSpLW=F IThBeg=    0 IThEnd=   19 NThAct=   20.
 PrsmSu:  NPrtUS=  20 ThrOK=T IAlg=1 NPAlg=1 LenDen=           0 ISkipM=0 DoSpLW=F IThBeg=    0 IThEnd=   19.
 Prism:   IPart=     0 DynPar=F LinDyn=F Incr=          25.
 PRISM was handed    33461942 working-precision words and  3632 shell-pairs
 PRISM was handed    33461942 working-precision words and  3632 shell-pairs
 PRISM was handed    33461942 working-precision words and  3632 shell-pairs
 PRISM was handed    33461942 working-precision words and  3632 shell-pairs
 PRISM was handed    33461942 working-precision words and  3632 shell-pairs
 PRISM was handed    33461942 working-precision words and  3632 shell-pairs
 PRISM was handed    33461942 working-precision words and  3632 shell-pairs
 PRISM was handed    33461942 working-precision words and  3632 shell-pairs
 PRISM was handed    33461942 working-precision words and  3632 shell-pairs
 PRISM was handed    33461942 working-precision words and  3632 shell-pairs
 PRISM was handed    33461942 working-precision words and  3632 shell-pairs
 PRISM was handed    33461942 working-precision words and  3632 shell-pairs
 PRISM was handed    33461942 working-precision words and  3632 shell-pairs
 PRISM was handed    33461942 working-precision words and  3632 shell-pairs
 PRISM was handed    33461942 working-precision words and  3632 shell-pairs
 PRISM was handed    33461942 working-precision words and  3632 shell-pairs
 PRISM was handed    33461942 working-precision words and  3632 shell-pairs
 PRISM was handed    33461942 working-precision words and  3632 shell-pairs
 PRISM was handed    33461942 working-precision words and  3632 shell-pairs
 PRISM was handed    33461942 working-precision words and  3632 shell-pairs
 IPart= 19 NShTot=        2282 NBatch=         163 AvBLen=        14.0
 IPart= 18 NShTot=        2296 NBatch=         164 AvBLen=        14.0
 IPart=  0 NShTot=        3052 NBatch=         218 AvBLen=        14.0
 IPart= 11 NShTot=        2366 NBatch=         169 AvBLen=        14.0
 IPart=  4 NShTot=        2786 NBatch=         199 AvBLen=        14.0
 IPart=  1 NShTot=        2968 NBatch=         212 AvBLen=        14.0
 IPart=  9 NShTot=        2520 NBatch=         180 AvBLen=        14.0
 IPart=  2 NShTot=        2870 NBatch=         205 AvBLen=        14.0
 IPart= 12 NShTot=        2338 NBatch=         167 AvBLen=        14.0
 IPart=  6 NShTot=        2660 NBatch=         190 AvBLen=        14.0
 IPart=  7 NShTot=        2646 NBatch=         189 AvBLen=        14.0
 IPart=  5 NShTot=        2730 NBatch=         195 AvBLen=        14.0
 IPart= 10 NShTot=        2436 NBatch=         174 AvBLen=        14.0
 IPart= 16 NShTot=        2296 NBatch=         164 AvBLen=        14.0
 IPart= 15 NShTot=        2310 NBatch=         165 AvBLen=        14.0
 IPart= 14 NShTot=        2310 NBatch=         165 AvBLen=        14.0
 IPart= 17 NShTot=        2296 NBatch=         164 AvBLen=        14.0
 IPart=  8 NShTot=        2548 NBatch=         182 AvBLen=        14.0
 IPart= 13 NShTot=        2324 NBatch=         166 AvBLen=        14.0
 IPart=  3 NShTot=        2814 NBatch=         201 AvBLen=        14.0
 PrSmSu:  NxtVal=            501.
 Polarizability after L701:
                1             2             3 
      1  0.000000D+00
      2  0.000000D+00  0.000000D+00
      3  0.000000D+00  0.000000D+00  0.000000D+00
 Dipole Derivatives after L701:
                 1             2             3             4             5 
      1   0.327182D+00  0.469885D-01 -0.989486D-01 -0.299249D+00  0.306405D-01
      2  -0.110928D+00 -0.214685D+00 -0.813522D-02  0.199173D+00 -0.938751D-01
      3  -0.104754D-01 -0.175061D-01 -0.244270D+00 -0.527834D-01 -0.593512D-01
                 6             7             8             9            10 
      1  -0.933602D-01 -0.772038D+00  0.877549D+00  0.811540D+00 -0.157699D+01
      2  -0.209848D+00  0.357056D+00 -0.693299D+00  0.643924D-01  0.928802D-02
      3  -0.536876D+00  0.832403D-01  0.350638D-01 -0.110298D+01  0.104446D+00
                11            12            13            14            15 
      1  -0.828207D+00 -0.721717D+00 -0.209467D+01  0.293847D-01  0.164371D+00
      2  -0.104699D+01 -0.886809D-01  0.489021D+00 -0.826518D+00 -0.121403D+00
      3   0.182189D-01 -0.895580D+00 -0.476501D-01 -0.574965D-01 -0.869663D+00
                16            17            18            19            20 
      1   0.369519D+00 -0.185420D+00  0.129405D+00  0.244641D+00  0.162052D+00
      2  -0.236743D+00 -0.110152D+00  0.310310D+00  0.485226D-03  0.158862D+00
      3   0.440305D-01  0.205115D+00  0.661136D+00 -0.712717D-01 -0.169057D+00
                21            22            23            24            25 
      1  -0.600937D+00  0.614956D+00 -0.754965D+00  0.944533D-01  0.147210D+01
      2   0.369031D-01 -0.321662D+00  0.700776D+00 -0.760855D-01  0.321435D+00
      3   0.781483D+00 -0.669407D-01  0.115547D+00  0.149057D+00 -0.213791D-01
                26            27            28            29            30 
      1   0.153948D+00 -0.467844D+00 -0.167660D+00  0.612078D+00 -0.121045D-01
      2   0.160043D+00 -0.979115D-01 -0.350281D+00  0.793060D+00 -0.392324D-01
      3   0.119781D-01  0.137547D+00 -0.426232D-01  0.977545D-01  0.133351D+00
                31            32            33            34            35 
      1   0.137833D+00 -0.227195D+00  0.898159D+00  0.577632D+00 -0.918284D+00
      2   0.826956D-02  0.110730D+00  0.144568D+00 -0.250099D+00  0.756748D+00
      3   0.138788D-01 -0.171429D+00  0.740042D+00 -0.696534D-01  0.191928D+00
                36            37            38            39            40 
      1  -0.407048D+00  0.820473D+00  0.233224D+00  0.969867D+00  0.346269D+00
      2   0.281070D+00 -0.103184D+00  0.818663D-01 -0.139334D+00 -0.118311D-01
      3   0.186535D+00  0.188938D+00  0.802034D-01  0.479904D+00 -0.517565D-01
                41            42 
      1   0.768206D+00 -0.665836D+00
      2   0.223433D+00 -0.566136D-01
      3  -0.280969D+00  0.380312D+00
 Hessian after L701:
                1             2             3             4             5 
      1  0.435650D+01
      2  0.493068D+01  0.713604D+01
      3  0.800719D+00  0.917661D+00  0.154439D+02
      4 -0.140876D+00 -0.366987D+00  0.145772D+00  0.101765D+02
      5 -0.471499D+00  0.664075D+00  0.527807D-01 -0.596792D+01  0.189137D+01
      6  0.161032D+00  0.557982D-02  0.140656D-01  0.266038D+01  0.475274D+01
      7  0.623016D+00 -0.211220D+00  0.118993D+00  0.901486D+00  0.418274D+00
      8 -0.136000D+00 -0.153835D-01 -0.182673D-01  0.377264D+00 -0.215012D+00
      9  0.125712D+00 -0.506285D-01 -0.354174D-01 -0.362320D+00 -0.978092D-01
     10  0.444707D+00  0.318636D-02  0.576538D-01  0.138220D+00  0.229556D+00
     11 -0.116855D+00 -0.258603D+00 -0.603297D-02  0.203928D+00  0.206219D-01
     12  0.468545D-01  0.334362D-01 -0.263104D+00  0.234243D-01  0.233705D-01
     13  0.373880D+00  0.433152D+00 -0.143001D+01 -0.840607D-01 -0.351665D+00
     14  0.397765D+00 -0.661569D+01 -0.450365D-01 -0.461132D+00  0.440757D+00
     15 -0.142818D+01 -0.532746D-01 -0.637320D+01  0.764403D-01 -0.139028D+00
     16 -0.560046D+01 -0.464533D+01  0.190018D+00 -0.112258D+02  0.620397D+01
     17 -0.460417D+01 -0.128610D+01 -0.918838D+00  0.624015D+01 -0.280628D+01
     18  0.201924D+00 -0.885575D+00 -0.931724D+01 -0.246656D+01 -0.455217D+01
     19  0.965432D-02 -0.465795D-03 -0.580368D-01 -0.118111D-02  0.354721D-01
     20  0.102974D-01 -0.378011D-01  0.716048D-02  0.357122D-01 -0.802787D-02
     21 -0.101674D+00  0.307996D-01  0.488793D-01 -0.912326D-01 -0.773659D-01
     22  0.818745D-01 -0.114588D+00 -0.616708D-03  0.108706D+00  0.421382D-01
     23 -0.132222D+00  0.618203D-01  0.203537D-02 -0.601403D-01 -0.602835D-01
     24 -0.108858D-02  0.149101D-02 -0.451830D-01 -0.101545D-01 -0.629256D-02
     25  0.711757D-01 -0.384782D-02  0.834549D-03  0.340159D-01  0.298381D-01
     26  0.312424D-02 -0.166387D-01  0.780993D-03  0.129181D-01 -0.110542D-02
     27 -0.896854D-02  0.907670D-03 -0.165755D-01 -0.118828D-01 -0.734620D-02
     28  0.435993D-01  0.481156D-01  0.411444D-01 -0.757133D-02  0.180759D-01
     29  0.132702D+00 -0.819123D-02  0.359053D-01  0.564489D-01  0.642566D-01
     30  0.389850D-01  0.160585D-01 -0.456955D-01 -0.188351D-02 -0.308979D-02
     31  0.232684D-01 -0.450969D-02  0.295117D-01  0.297096D-01  0.426924D-01
     32 -0.161808D-01 -0.200568D-01 -0.101402D-01  0.268567D-01 -0.655073D-02
     33  0.671670D-01 -0.868503D-02  0.156799D-01  0.578890D-01  0.456195D-01
     34 -0.153257D+00 -0.216053D-02 -0.431557D-02  0.721145D-02 -0.859339D-01
     35 -0.377510D-01  0.202558D+00  0.884036D-01 -0.598897D-01  0.110782D+00
     36 -0.908917D-02  0.668414D-01  0.119630D+00 -0.943207D-02  0.218782D-01
     37 -0.587378D-01 -0.358423D-01  0.166127D+00  0.257285D-01 -0.724514D-01
     38 -0.758560D-02  0.643922D-01  0.386353D-01 -0.333502D-01  0.334323D-02
     39  0.187262D+00  0.440393D-01  0.248774D+00  0.388190D-01 -0.554803D-01
     40 -0.743495D-01 -0.301818D-01 -0.577897D-01  0.378288D-01 -0.705469D-01
     41  0.476946D-01  0.129566D+00 -0.145048D+00 -0.386116D-02 -0.979448D-01
     42 -0.806533D-01 -0.118652D+00  0.205442D+00 -0.492658D-01  0.421911D-01
                6             7             8             9            10 
      6  0.149635D+02
      7 -0.462847D+00  0.102158D+02
      8 -0.143043D+00 -0.472593D+00  0.150644D+02
      9 -0.139152D+00  0.550657D+00 -0.514017D+00  0.152781D+02
     10  0.101069D+00 -0.399808D+01  0.158579D+01  0.118804D+01  0.109055D+02
     11  0.747800D-01  0.156693D+01 -0.308286D+01  0.149094D+01 -0.915984D+00
     12 -0.146911D+00  0.117510D+01  0.149083D+01 -0.395790D+01 -0.650985D+00
     13  0.253958D-01  0.206171D-01  0.187745D-01  0.263077D-01  0.115927D+00
     14 -0.943053D-01 -0.340413D-01  0.291328D-01 -0.321456D-02  0.115215D-01
     15 -0.305176D+00  0.906379D-02 -0.724903D-02  0.802498D-02  0.196867D-01
     16 -0.244089D+01 -0.414227D+00  0.733137D-01 -0.123359D+01  0.394789D+00
     17 -0.452302D+01  0.233688D-01 -0.611074D+01  0.349859D-01  0.650735D-01
     18 -0.142554D+02 -0.125328D+01  0.324491D-01 -0.572568D+01 -0.263156D-01
     19 -0.663318D-01 -0.404645D+01  0.653882D-01 -0.332801D+00  0.764372D-01
     20 -0.508586D-01  0.351793D-01 -0.396726D+01 -0.502777D+00 -0.225272D-01
     21  0.648483D-01 -0.180816D+00 -0.549342D+00 -0.139158D+01 -0.671073D-01
     22 -0.326734D-01 -0.338046D+01 -0.137155D+01  0.128921D+00  0.146462D-01
     23  0.164072D-01 -0.124963D+01 -0.174726D+01 -0.226522D+00 -0.314217D-01
     24 -0.452658D-01  0.860052D-01 -0.175132D+00 -0.406049D+01  0.191108D-02
     25 -0.741840D-02 -0.422570D-01 -0.648343D-01 -0.429503D-01 -0.117999D+01
     26 -0.766834D-03 -0.776742D-01  0.387695D-01 -0.291312D-02  0.325563D+00
     27 -0.718130D-02 -0.581606D-01 -0.935266D-02  0.731809D-01 -0.690940D+00
     28 -0.111745D-02  0.234283D-01 -0.430898D-01 -0.451141D-03 -0.331292D+01
     29 -0.673187D-02  0.343011D-01  0.256231D-02 -0.436426D-01 -0.122485D+01
     30 -0.198666D-01  0.216026D-01 -0.544515D-01 -0.221712D-01  0.180605D-01
     31  0.196286D-01  0.333735D-01 -0.169024D-01 -0.497307D-01 -0.365168D+01
     32  0.104620D-01 -0.872256D-02  0.126292D-01 -0.880428D-01 -0.274454D-01
     33 -0.932722D-02  0.147204D-01 -0.558979D-01 -0.189462D-02  0.500745D-01
     34  0.225330D-02  0.342159D-01 -0.223146D-01 -0.423070D-02  0.237759D-01
     35 -0.190468D-02 -0.434435D-01  0.234392D-02  0.124779D-02 -0.183475D-01
     36 -0.356560D-01 -0.172107D-01  0.729019D-02 -0.170243D-01 -0.592008D-02
     37  0.256023D-01  0.197584D-01 -0.253479D-03  0.834812D-02  0.178808D-01
     38 -0.114586D-01 -0.168429D-03 -0.593328D-02  0.210084D-02  0.355453D-02
     39 -0.328565D-02  0.190192D-01  0.134131D-02  0.857507D-03  0.152649D-01
     40  0.159125D-01  0.977763D-02  0.700640D-02 -0.191031D-02  0.108259D-01
     41 -0.278817D-01  0.194427D-01 -0.539360D-02  0.294286D-03  0.163322D-01
     42 -0.752336D-01 -0.228514D-01 -0.515387D-02 -0.882353D-02 -0.104898D-01
               11            12            13            14            15 
     11  0.119657D+02
     12 -0.635469D+00  0.127073D+02
     13 -0.127085D-01 -0.125405D-01  0.902833D+01
     14 -0.899501D-01  0.153145D-02  0.376837D+00  0.144441D+02
     15 -0.374553D-02 -0.875402D-01  0.104144D+01  0.215214D+00  0.149974D+02
     16  0.866295D-01 -0.396302D-01  0.476459D+00 -0.358126D+00 -0.117023D+00
     17 -0.187753D+00 -0.236576D-01 -0.283494D+00  0.590498D-02  0.808517D-01
     18 -0.148469D-01 -0.136553D+00 -0.147074D+00  0.968062D-01 -0.391117D-01
     19 -0.423698D-02 -0.479042D-01  0.220824D-01 -0.920639D-02 -0.181255D-01
     20  0.681958D-01 -0.879761D-01 -0.455618D-02 -0.151216D-01  0.682856D-03
     21 -0.693353D-01 -0.523770D-02 -0.248257D-01  0.742483D-02 -0.395615D-03
     22 -0.642994D-01 -0.272304D-03  0.126825D-03 -0.794596D-02 -0.210760D-03
     23  0.295373D-01 -0.190176D-01 -0.538166D-02  0.436934D-02 -0.294859D-03
     24 -0.411043D-01 -0.343206D-02  0.370687D-03 -0.976787D-03 -0.550578D-02
     25  0.296353D+00 -0.742789D+00  0.122788D-01  0.160991D-02  0.121065D-02
     26 -0.345775D+01 -0.118592D+00  0.119509D-02 -0.544058D-02  0.405752D-03
     27 -0.101869D+00 -0.327592D+01 -0.888191D-03 -0.165980D-03 -0.604860D-02
     28 -0.951998D+00  0.317555D-01  0.130468D-01  0.527355D-02  0.545861D-03
     29 -0.147093D+01 -0.126954D+00  0.155032D-01 -0.434182D-02  0.366688D-02
     30 -0.804341D-01 -0.375359D+01  0.227327D-05 -0.144965D-03 -0.131104D-01
     31 -0.677492D-01  0.229480D+00  0.115072D-01 -0.113965D-02  0.933049D-02
     32 -0.352076D+01 -0.536995D+00 -0.275987D-02 -0.893709D-02 -0.271032D-02
     33 -0.615554D+00 -0.106297D+01  0.126771D-01 -0.104194D-02  0.899838D-03
     34 -0.121441D-01 -0.643109D-02 -0.330857D+01 -0.100662D+01 -0.457706D+00
     35  0.318387D-02  0.748332D-02 -0.921135D+00 -0.191943D+01  0.844822D+00
     36  0.495136D-02 -0.607733D-02 -0.410210D+00  0.835505D+00 -0.341686D+01
     37 -0.542709D-02  0.680797D-04 -0.278702D+01  0.409033D+00  0.144234D+01
     38 -0.866558D-02 -0.123290D-03  0.314322D+00 -0.374017D+01  0.427629D+00
     39 -0.583886D-02 -0.791861D-02  0.130951D+01  0.498479D+00 -0.207252D+01
     40 -0.243481D-02 -0.613139D-02 -0.389460D+01  0.676170D+00 -0.578807D+00
     41 -0.998499D-02 -0.786229D-02  0.421917D+00 -0.252518D+01 -0.136697D+01
     42  0.355998D-02 -0.133388D-03 -0.390152D+00 -0.151007D+01 -0.268688D+01
               16            17            18            19            20 
     16  0.158293D+02
     17 -0.138801D+01  0.103436D+02
     18  0.355538D+01  0.527650D+01  0.294797D+02
     19  0.258488D-01 -0.541114D-01  0.111192D+00  0.384823D+01
     20 -0.219192D-01  0.329803D-01  0.228061D-01 -0.512258D-01  0.397037D+01
     21  0.463592D-01  0.526803D-01 -0.212784D-01  0.453602D+00  0.507801D+00
     22  0.104953D+00  0.849794D-01 -0.122570D-01  0.688521D-01  0.291168D-01
     23  0.399407D-01  0.837568D-01 -0.301766D-02  0.279522D-01 -0.177704D-01
     24  0.597473D-02 -0.184991D-01  0.112587D+00 -0.399227D-01  0.117047D+00
     25  0.209633D+00  0.108672D+00  0.131408D-01 -0.617310D-02 -0.104366D-01
     26  0.107334D+00 -0.464824D-01  0.275935D-02 -0.733266D-02  0.352196D-02
     27 -0.178985D-02 -0.415009D-04 -0.858832D-01 -0.156181D-01 -0.762596D-02
     28  0.290830D-01 -0.248943D-01  0.240232D-03  0.913035D-02 -0.224899D-02
     29  0.213730D-01 -0.172176D-01  0.571114D-03 -0.530365D-03 -0.625154D-02
     30  0.365059D-02 -0.578998D-02  0.200581D-01  0.133942D-02 -0.151934D-01
     31  0.883513D-02  0.137924D-03 -0.856340D-03 -0.172182D-01  0.104411D-02
     32 -0.160554D-02  0.500139D-02 -0.348062D-02 -0.771445D-03 -0.202927D-01
     33  0.282654D-01 -0.118354D-02  0.183784D-01  0.155059D-01  0.936851D-02
     34  0.470074D-01 -0.848225D-01 -0.308679D-01  0.252383D-02 -0.158302D-04
     35 -0.104675D+00  0.273791D-01  0.388104D-01 -0.322981D-02 -0.122160D-02
     36 -0.421618D-01  0.377492D-01 -0.353322D-01 -0.218767D-02 -0.860284D-04
     37  0.901515D-01 -0.240724D-01  0.527883D-01  0.678565D-02  0.774049D-03
     38 -0.113531D-01 -0.328804D-01 -0.921296D-02 -0.949464D-04 -0.146583D-02
     39  0.916793D-01 -0.120263D-01 -0.127626D-02  0.262860D-02  0.104108D-02
     40  0.243618D-01 -0.588163D-01  0.254196D-02  0.147881D-02  0.806022D-03
     41 -0.154602D-02 -0.111971D-01 -0.240488D-02  0.239315D-02  0.152259D-03
     42 -0.462417D-01  0.202832D-01 -0.129800D-01 -0.334008D-02 -0.138963D-02
               21            22            23            24            25 
     21  0.123424D+01
     22 -0.334587D-01  0.299353D+01
     23  0.921374D-01  0.144259D+01  0.158360D+01
     24 -0.168697D-01 -0.325713D-01  0.143203D+00  0.408730D+01
     25  0.294825D-03 -0.644888D-02  0.543088D-02 -0.244358D-02  0.931806D+00
     26 -0.443342D-02 -0.131589D-01 -0.700370D-02 -0.249073D-02 -0.417667D+00
     27 -0.631751D-02 -0.122183D-03 -0.683056D-02  0.500860D-02  0.687310D+00
     28 -0.810126D-02 -0.152307D-01 -0.137779D-01 -0.267343D-02 -0.583061D-01
     29 -0.520877D-03 -0.229662D-01  0.831262D-01  0.118838D-01  0.674874D-01
     30 -0.423011D-02 -0.470484D-02  0.131775D-01 -0.149152D-01  0.300815D-01
     31  0.257145D-01  0.143374D-01 -0.587556D-02 -0.542136D-02  0.185467D-01
     32  0.982404D-02 -0.141772D-02 -0.139445D-01 -0.290845D-01 -0.135614D-01
     33  0.958247D-01 -0.926980D-02 -0.139024D-01 -0.112308D-01  0.648878D-01
     34 -0.584235D-02  0.363986D-02 -0.557128D-02 -0.839560D-04  0.531050D-02
     35  0.720073D-02 -0.628460D-02  0.680225D-02 -0.221159D-04 -0.615634D-02
     36  0.311033D-02 -0.231791D-02  0.292914D-02 -0.813735D-03 -0.279972D-02
     37 -0.820352D-02  0.617443D-02 -0.693739D-02  0.958165D-03  0.623094D-02
     38 -0.797868D-03 -0.366944D-03 -0.985951D-03 -0.774567D-04  0.135919D-02
     39 -0.713626D-02  0.542805D-02 -0.600476D-02 -0.205282D-03  0.573732D-02
     40 -0.470912D-02  0.529739D-02 -0.495357D-02 -0.860419D-03  0.417718D-02
     41 -0.607293D-02  0.375416D-02 -0.576628D-02  0.547298D-04  0.575236D-02
     42  0.614081D-02 -0.587444D-02  0.569985D-02 -0.987110D-03 -0.509707D-02
               26            27            28            29            30 
     26  0.342050D+01
     27  0.120995D+00  0.331358D+01
     28  0.911730D-01  0.118564D-01  0.320806D+01
     29  0.267071D-01 -0.110777D-01  0.840287D+00  0.136272D+01
     30 -0.265281D-01  0.555219D-01 -0.422548D-01  0.334698D-01  0.380663D+01
     31 -0.270991D-01  0.927894D-01  0.642569D-01  0.621428D-01 -0.643725D-01
     32  0.460425D-01  0.226614D-01  0.321710D-01 -0.322343D-01  0.123112D+00
     33  0.309838D-01 -0.485848D-01 -0.303501D-01  0.105457D+00 -0.564067D-02
     34  0.783699D-04 -0.136663D-02  0.241688D-02  0.571900D-02 -0.499478D-03
     35 -0.914975D-03  0.159442D-02 -0.252233D-03 -0.732751D-02  0.358634D-03
     36 -0.108544D-03  0.105919D-03 -0.289111D-03 -0.261450D-02 -0.155838D-02
     37  0.777375D-03 -0.109296D-02 -0.203641D-03  0.676215D-02  0.572237D-03
     38 -0.389372D-03 -0.248384D-03  0.195203D-03  0.977396D-03  0.186999D-03
     39  0.643282D-03 -0.160454D-02 -0.119755D-05  0.614045D-02 -0.467418D-03
     40  0.768721D-03 -0.112641D-02  0.120624D-02  0.561991D-02 -0.579046D-03
     41  0.184173D-03 -0.160062D-02  0.969834D-03  0.614546D-02 -0.731706D-03
     42 -0.735282D-03  0.715799D-03 -0.303910D-03 -0.555255D-02 -0.968980D-03
               31            32            33            34            35 
     31  0.345769D+01
     32  0.171024D-01  0.356101D+01
     33 -0.286739D+00  0.504407D+00  0.101103D+01
     34  0.258943D-02 -0.192358D-02  0.502657D-02  0.316246D+01
     35 -0.279087D-02  0.114662D-02 -0.591659D-02  0.121797D+01  0.173747D+01
     36 -0.370954D-03  0.520059D-03 -0.268484D-02  0.533694D+00 -0.892879D+00
     37  0.242580D-02 -0.120509D-02  0.608122D-02  0.901155D-01 -0.273855D-01
     38  0.344335D-03 -0.969108D-03  0.107742D-02 -0.285818D-01 -0.215262D-01
     39  0.252544D-02 -0.131536D-02  0.553961D-02 -0.202585D-01 -0.119703D+00
     40  0.236774D-02 -0.536708D-03  0.406405D-02  0.805651D-01  0.133678D-01
     41  0.260253D-02 -0.208622D-02  0.526789D-02  0.263144D-01 -0.141243D+00
     42 -0.148928D-02  0.782100D-03 -0.502019D-02 -0.937136D-02  0.305050D-01
               36            37            38            39            40 
     36  0.336658D+01
     37 -0.223058D-01  0.249979D+01
     38 -0.141885D+00 -0.263669D+00  0.367428D+01
     39 -0.554586D-01 -0.161241D+01 -0.405766D+00  0.202582D+01
     40 -0.939869D-02  0.809202D-01  0.253955D-01 -0.452121D-01  0.371015D+01
     41  0.599087D-01  0.198979D-01  0.699886D-01  0.544504D-01 -0.561664D+00
     42  0.820315D-01 -0.588764D-01  0.999399D-01 -0.131126D+00  0.684006D+00
               41            42 
     41  0.259276D+01
     42  0.143860D+01  0.262783D+01
 Leave Link  701 at Tue Apr  9 01:51:07 2019, MaxMem=   671088640 cpu:               7.2 elap:               0.4
 (Enter /shared/centos7/gaussian/g16/l702.exe)
 L702 exits ... SP integral derivatives will be done elsewhere.
 Leave Link  702 at Tue Apr  9 01:51:07 2019, MaxMem=   671088640 cpu:               0.3 elap:               0.0
 (Enter /shared/centos7/gaussian/g16/l703.exe)
 Integral derivatives from FoFJK, PRISM(SPDF).
 Compute integral second derivatives, UseDBF=F ICtDFT=           0.
 ICntrl=    100147.
 Calling FoFJK, ICntrl=    100147 FMM=F ISym2X=0 I1Cent= 0 IOpClX= 0 NMat=1 NMatS=1 NMatT=0.
 FoFJK:  IHMeth= 1 ICntrl=  100147 DoSepK=F KAlg= 0 I1Cent=           0 FoldK=F
 IRaf=         0 NMat=       1 IRICut=       1 DoRegI=T DoRafI=F ISym2E= 0 IDoP0=0 IntGTp=1.
 FoFCou: FMM=F IPFlag=           0 FMFlag=      100000 FMFlg1=         800
         NFxFlg=           0 DoJE=F BraDBF=F KetDBF=F FulRan=T
         wScrn=  0.000000 ICntrl=    100147 IOpCl=  0 I1Cent=           0 NGrid=           0
         NMat0=    1 NMatS0=      1 NMatT0=    0 NMatD0=    1 NMtDS0=    0 NMtDT0=    0
 Symmetry not used in FoFCou.
 FoFCou:  KetSym=F NOpSet=  1 NOpAb=1 NOp=  1.
 FoFCou:  CnvScl= 1.00D+00 Thresh= 1.00D-08 IAcrcy=      12.
 PrismS was handed   670714377 working-precision words and  3742 shell-pairs
 FoFCou: LinMIO=F DoNuc=F BraDBF=F KetDBF=F HaveP=T PDBF=F HaveZ=T HaveW=F
         NIJTC =      15 NIJTAt=       0 NIJTCD=       0 NIJTT =      15
         IJTBeg=       1 IJTEnd=      15 KLTBeg=       1 KLTEnd=      15
         IPTBeg=       1 IPTEnd=      15 IPTBCv=       1 IPTECv=      15
         IZTBeg=       1 IZTEnd=      15 IZTBCv=       1 IZTECv=      15
         IWTBeg=      16 IWTEnd=      15 IWTBCv=      16 IWTECv=      15
         INTBeg=       1 INTEnd=       0 IFTBCv=       1 IFTECv=      15
 NCel replicated for PrismC:     1
 CoulSu-InSpLW:  IPartL=    0 NPrtUS=   20 NPrtUL=    1 DoSpLW=F IThBeg=    0 IThEnd=   19 NThAct=   20.
 CoulSu:  IncDef=  1024 NBBP=        7003153 NTPThr=   100 NPartT=   20 Incr=        1024 LDynOK=F GPUOK=T.
 CoulSu:  NPrtUS=  20 ThrOK=T IAlg=1 NPAlg=1 LenDen=           0 LWGrdD=           0 DoCopy=F ISkipM=0
          DoSpLW=F IThBeg=    0 IThEnd=   19.
 Enter PrismC:  IPart=  0 JobTyp=22 DoJE=F Cont=F.
 PrismC:  IPart=     0 DynPar=T LinDyn=F Incr=        1024 UseFst=F UseS4=T ISplat=2.
 PrismC was handed    33465353 working-precision words and  3742 shell-pairs
 Enter PrismC:  IPart= 11 JobTyp=22 DoJE=F Cont=F.
 PrismC:  IPart=    11 DynPar=T LinDyn=F Incr=        1024 UseFst=F UseS4=T ISplat=2.
 PrismC was handed    33465353 working-precision words and  3742 shell-pairs
 Enter PrismC:  IPart= 16 JobTyp=22 DoJE=F Cont=F.
 PrismC:  IPart=    16 DynPar=T LinDyn=F Incr=        1024 UseFst=F UseS4=T ISplat=2.
 PrismC was handed    33465353 working-precision words and  3742 shell-pairs
 Enter PrismC:  IPart= 10 JobTyp=22 DoJE=F Cont=F.
 Enter PrismC:  IPart=  8 JobTyp=22 DoJE=F Cont=F.
 Enter PrismC:  IPart=  4 JobTyp=22 DoJE=F Cont=F.
 PrismC:  IPart=     8 DynPar=T LinDyn=F Incr=        1024 UseFst=F UseS4=T ISplat=2.
 PrismC was handed    33465353 working-precision words and  3742 shell-pairs
 PrismC:  IPart=     4 DynPar=T LinDyn=F Incr=        1024 UseFst=F UseS4=T ISplat=2.
 PrismC was handed    33465353 working-precision words and  3742 shell-pairs
 PrismC:  IPart=    10 DynPar=T LinDyn=F Incr=        1024 UseFst=F UseS4=T ISplat=2.
 PrismC was handed    33465353 working-precision words and  3742 shell-pairs
 Enter PrismC:  IPart= 15 JobTyp=22 DoJE=F Cont=F.
 PrismC:  IPart=    15 DynPar=T LinDyn=F Incr=        1024 UseFst=F UseS4=T ISplat=2.
 PrismC was handed    33465353 working-precision words and  3742 shell-pairs
 Enter PrismC:  IPart=  6 JobTyp=22 DoJE=F Cont=F.
 Enter PrismC:  IPart= 14 JobTyp=22 DoJE=F Cont=F.
 PrismC:  IPart=     6 DynPar=T LinDyn=F Incr=        1024 UseFst=F UseS4=T ISplat=2.
 PrismC was handed    33465353 working-precision words and  3742 shell-pairs
 PrismC:  IPart=    14 DynPar=T LinDyn=F Incr=        1024 UseFst=F UseS4=T ISplat=2.
 PrismC was handed    33465353 working-precision words and  3742 shell-pairs
 Enter PrismC:  IPart= 13 JobTyp=22 DoJE=F Cont=F.
 PrismC:  IPart=    13 DynPar=T LinDyn=F Incr=        1024 UseFst=F UseS4=T ISplat=2.
 Enter PrismC:  IPart=  5 JobTyp=22 DoJE=F Cont=F.
 PrismC was handed    33465353 working-precision words and  3742 shell-pairs
 PrismC:  IPart=     5 DynPar=T LinDyn=F Incr=        1024 UseFst=F UseS4=T ISplat=2.
 PrismC was handed    33465353 working-precision words and  3742 shell-pairs
 Enter PrismC:  IPart= 19 JobTyp=22 DoJE=F Cont=F.
 PrismC:  IPart=    19 DynPar=T LinDyn=F Incr=        1024 UseFst=F UseS4=T ISplat=2.
 PrismC was handed    33465353 working-precision words and  3742 shell-pairs
 Enter PrismC:  IPart=  7 JobTyp=22 DoJE=F Cont=F.
 PrismC:  IPart=     7 DynPar=T LinDyn=F Incr=        1024 UseFst=F UseS4=T ISplat=2.
 PrismC was handed    33465353 working-precision words and  3742 shell-pairs
 Enter PrismC:  IPart= 18 JobTyp=22 DoJE=F Cont=F.
 PrismC:  IPart=    18 DynPar=T LinDyn=F Incr=        1024 UseFst=F UseS4=T ISplat=2.
 Enter PrismC:  IPart=  1 JobTyp=22 DoJE=F Cont=F.
 Enter PrismC:  IPart=  2 JobTyp=22 DoJE=F Cont=F.
 PrismC:  IPart=     1 DynPar=T LinDyn=F Incr=        1024 UseFst=F UseS4=T ISplat=2.
 Enter PrismC:  IPart=  9 JobTyp=22 DoJE=F Cont=F.
 Enter PrismC:  IPart= 17 JobTyp=22 DoJE=F Cont=F.
 Enter PrismC:  IPart= 12 JobTyp=22 DoJE=F Cont=F.
 Enter PrismC:  IPart=  3 JobTyp=22 DoJE=F Cont=F.
 PrismC:  IPart=     2 DynPar=T LinDyn=F Incr=        1024 UseFst=F UseS4=T ISplat=2.
 PrismC was handed    33465353 working-precision words and  3742 shell-pairs
 PrismC:  IPart=    17 DynPar=T LinDyn=F Incr=        1024 UseFst=F UseS4=T ISplat=2.
 PrismC was handed    33465353 working-precision words and  3742 shell-pairs
[...]
 ! A17   A(12,5,13)            110.6254         -DE/DX =    0.0                 !
 ! A18   A(12,5,14)            110.6383         -DE/DX =    0.0                 !
 ! A19   A(13,5,14)            108.834          -DE/DX =    0.0                 !
 ! A20   A(1,6,2)              122.979          -DE/DX =    0.0                 !
 ! A21   A(1,6,3)              111.4152         -DE/DX =    0.0                 !
 ! A22   A(2,6,3)              125.5928         -DE/DX =    0.0                 !
 ! D1    D(6,1,5,12)          -179.8057         -DE/DX =    0.0                 !
 ! D2    D(6,1,5,13)            60.365          -DE/DX =    0.0                 !
 ! D3    D(6,1,5,14)           -59.9561         -DE/DX =    0.0                 !
 ! D4    D(5,1,6,2)             -0.4221         -DE/DX =    0.0                 !
 ! D5    D(5,1,6,3)            178.3346         -DE/DX =    0.0                 !
 ! D6    D(6,3,4,9)           -179.006          -DE/DX =    0.0                 !
 ! D7    D(6,3,4,10)            60.9682         -DE/DX =    0.0                 !
 ! D8    D(6,3,4,11)           -59.3531         -DE/DX =    0.0                 !
 ! D9    D(7,3,4,9)             60.894          -DE/DX =    0.0                 !
 ! D10   D(7,3,4,10)           -59.1318         -DE/DX =    0.0                 !
 ! D11   D(7,3,4,11)          -179.4531         -DE/DX =    0.0                 !
 ! D12   D(8,3,4,9)            -59.7171         -DE/DX =    0.0                 !
 ! D13   D(8,3,4,10)          -179.7429         -DE/DX =    0.0                 !
 ! D14   D(8,3,4,11)            59.9358         -DE/DX =    0.0                 !
 ! D15   D(4,3,6,1)            -69.9788         -DE/DX =    0.0                 !
 ! D16   D(4,3,6,2)            108.7386         -DE/DX =    0.0                 !
 ! D17   D(7,3,6,1)             50.9491         -DE/DX =    0.0                 !
 ! D18   D(7,3,6,2)           -130.3334         -DE/DX =    0.0                 !
 ! D19   D(8,3,6,1)            168.4855         -DE/DX =    0.0                 !
 ! D20   D(8,3,6,2)            -12.797          -DE/DX =    0.0                 !
 --------------------------------------------------------------------------------
 GradGradGradGradGradGradGradGradGradGradGradGradGradGradGradGradGradGrad

 Leave Link  103 at Tue Apr  9 02:05:54 2019, MaxMem=   671088640 cpu:               0.5 elap:               0.1
 (Enter /shared/centos7/gaussian/g16/l9999.exe)

 ----------------------------------------------------------------------

 Electric dipole moment (input orientation):
 (Debye = 10**-18 statcoulomb cm , SI units = C m)
                  (au)            (Debye)         (10**-30 SI)
   Tot        0.768938D+00      0.195444D+01      0.651933D+01
   x         -0.943529D-01     -0.239821D+00     -0.799957D+00
   y          0.733281D+00      0.186382D+01      0.621702D+01
   z          0.211333D+00      0.537154D+00      0.179175D+01

 Dipole polarizability, Alpha (input orientation).
 (esu units = cm**3 , SI units = C**2 m**2 J**-1)
 Alpha(0;0):
               (au)            (10**-24 esu)      (10**-40 SI)
   iso        0.549999D+02      0.815014D+01      0.906826D+01
   aniso      0.149142D+02      0.221006D+01      0.245902D+01
   xx         0.575533D+02      0.852853D+01      0.948927D+01
   yx         0.214743D+01      0.318216D+00      0.354063D+00
   yy         0.542209D+02      0.803471D+01      0.893982D+01
   zx        -0.793290D+01     -0.117553D+01     -0.130796D+01
   zy         0.121002D+01      0.179307D+00      0.199506D+00
   zz         0.532254D+02      0.788719D+01      0.877569D+01

 ----------------------------------------------------------------------

 Dipole orientation:
     8          2.44773015         -0.04535251          0.77970150
     8          1.67706677         -0.95983772         -3.27210992
     6         -1.16910781         -2.49577647         -0.06514706
     6         -0.36212224         -4.88269623          1.35496234
     6          4.66881311          1.25912954         -0.00605032
     6          1.09061336         -1.10193760         -1.08583675
     1         -2.19611877         -1.23819627          1.20243762
     1         -2.37331561         -2.95891753         -1.66334914
     1         -2.01281182         -5.89002085          2.05443437
     1          0.83555636         -4.40572184          2.95715037
     1          0.68322102         -6.14986999          0.11424384
     1          5.53508301          1.98322027          1.70501918
     1          4.18112822          2.79907054         -1.27869824
     1          5.94703136         -0.02576419         -0.97786453

 Electric dipole moment (dipole orientation):
 (Debye = 10**-18 statcoulomb cm , SI units = C m)
                  (au)            (Debye)         (10**-30 SI)
   Tot        0.768938D+00      0.195444D+01      0.651933D+01
   x          0.000000D+00      0.000000D+00      0.000000D+00
   y          0.000000D+00      0.000000D+00      0.000000D+00
   z          0.768938D+00      0.195444D+01      0.651933D+01

 Dipole polarizability, Alpha (dipole orientation).
 (esu units = cm**3 , SI units = C**2 m**2 J**-1)
 Alpha(0;0):
               (au)            (10**-24 esu)      (10**-40 SI)
   iso        0.549999D+02      0.815014D+01      0.906826D+01
   aniso      0.149142D+02      0.221006D+01      0.245902D+01
   xx         0.559531D+02      0.829139D+01      0.922542D+01
   yx         0.836812D+01      0.124003D+01      0.137972D+01
   yy         0.541839D+02      0.802923D+01      0.893372D+01
   zx        -0.301121D+00     -0.446215D-01     -0.496482D-01
   zy        -0.179767D+01     -0.266387D+00     -0.296395D+00
   zz         0.548626D+02      0.812980D+01      0.904563D+01

 ----------------------------------------------------------------------

 Test job not archived.
 1\1\GINC-C0212\Freq\RM062X\6-311+G(2df,2p)\C4H8O2\UNDERKOFFLER.C\09-Ap
 r-2019\0\\#P Geom=AllCheck Guess=TCheck SCRF=Check Test GenChk RM062X/
 6-311+G(2df,2p) Freq\\Gaussian input prepared by ASE\\0,1\O,1.22715371
 06,0.5054802854,0.2952227818\O,1.0428300538,-1.7153692448,0.1173805783
 \C,-0.7283540978,-0.4682400263,1.1740768334\C,-0.5145096686,-0.0744664
 022,2.6375459113\C,2.5030016361,0.4147164492,-0.3331256167\C,0.5872942
 876,-0.6621315357,0.4689756398\H,-1.2866304416,0.3123068875,0.65712077
 64\H,-1.276787147,-1.4034985276,1.097164434\H,-1.4720472683,0.04553774
 85,3.1404261894\H,0.0309221841,0.8645847655,2.7076332239\H,0.051142656
 6,-0.8420203825,3.1644409683\H,2.8800638825,1.4301005311,-0.3934266541
 \H,2.405413329,-0.0176092296,-1.3269969197\H,3.1721092002,-0.208514624
 4,0.256941649\\Version=EM64L-G16RevA.03\State=1-A\HF=-307.6746728\RMSD
 =7.337e-09\RMSF=5.640e-07\ZeroPoint=0.1198927\Thermal=0.1271271\Dipole
 =-0.0943529,0.7332813,0.2113326\DipoleDeriv=-1.1056657,-0.4376728,0.42
 0226,-0.4529836,-1.0370795,0.1660638,0.3617343,0.1345219,-0.4698349,-0
 .6411707,0.2598785,0.2469935,-0.0322508,-1.1077876,-0.1209241,0.142080
 9,-0.2221136,-0.4764539,-0.1009494,0.0291519,0.1146428,0.043715,0.0507
 008,-0.0539119,0.1536782,-0.0544752,-0.0546645,-0.0027557,0.0054308,0.
 0426658,-0.0277402,0.0660221,0.0100774,-0.0431534,-0.0039679,0.1077917
 ,0.6949742,0.1469653,-0.2140446,0.0113386,0.2789945,-0.0066491,-0.2058
 288,-0.0690671,0.3734631,1.1803775,0.0807152,-0.6141602,0.4454008,1.75
 45838,-0.0305514,-0.4447815,0.1409507,0.5183211,0.0163055,0.0395528,-0
 .0142713,0.0543772,0.0083575,0.0620685,-0.0326892,0.0464449,-0.0063894
 ,0.009514,-0.0395912,0.0096947,-0.0745174,-0.0317461,-0.027531,0.00729
 19,-0.0223581,0.0266159,-0.0757965,0.0209905,0.0900786,0.0197343,0.073
 4591,-0.0244029,0.0835402,-0.0248114,-0.0275868,0.0367137,-0.0762665,-
 0.0330755,-0.0670378,-0.0509769,-0.03318,-0.0076577,0.0074159,0.036105
 6,0.0261297,0.0621994,-0.0666183,0.0650939,-0.022637,0.0629137,-0.0302
 313,0.0210765,-0.010151,0.0191485,-0.0336319,0.0322352,-0.0831407,-0.0
 728628,0.02368,0.0211315,-0.0037186,0.0733624,-0.0130471,-0.0477877,-0
 .0280502,0.0135904,0.0581564,-0.0730392,0.0399599,-0.0146551,-0.072436
 8,-0.0437781,-0.0099345,0.0136836,0.0844203,0.0328158,0.0453862,-0.045
 0749,0.0647571,-0.0181424\Polar=57.5533484,2.1474287,54.2208865,-7.932
 901,1.2100242,53.2254278\Quadrupole=3.2573139,-3.8910142,0.6337002,1.6
 442056,-1.4015699,-1.7763658\PG=C01 [X(C4H8O2)]\NImag=0\\0.42324592,0.
 08707932,0.41858290,-0.15776283,-0.00210190,0.15808188,0.03265856,-0.0
 1047388,-0.00225234,0.20282010,-0.01736746,-0.12037081,-0.00961865,-0.
 24845921,0.71875559,-0.00310705,-0.01301447,0.03084284,-0.11448298,0.2
 0619933,0.11336460,-0.02545512,-0.00784090,0.01721913,-0.00762157,0.01
 273492,0.01840868,0.53358376,-0.03645421,-0.00145123,0.01685614,0.0363
 3238,-0.01324422,-0.02487026,0.02229318,0.62608561,0.01325521,0.003903
 85,0.00439261,0.02030684,-0.01197587,0.01393463,0.01554083,-0.03185624
 ,0.45415991,-0.00296871,-0.00157257,0.00002342,-0.00683150,0.00336170,
 -0.00175583,-0.07980822,-0.00684981,-0.01203377,0.58136960,-0.00203898
 ,-0.00145964,-0.00056563,0.00129194,0.00032682,0.00070625,-0.00823461,
 -0.08396571,-0.02765751,-0.00280872,0.57423889,-0.00184719,-0.00240797
 ,0.00063493,-0.00185297,0.00219446,0.00198127,-0.02047948,-0.02675299,
 -0.18078871,-0.01892499,-0.02747123,0.47781653,-0.19020126,0.00642193,
 0.06019654,-0.00269961,0.01766688,0.00043498,0.00333700,-0.00164894,0.
 00020817,0.00018180,-0.00003776,0.00050837,0.49869064,0.03203737,-0.09
 165468,-0.01836176,-0.00279007,-0.00122612,0.00195923,-0.00183707,-0.0
 0481325,-0.00072680,0.00018565,0.00009701,-0.00015763,0.02041844,0.633
 38202,0.06313779,-0.00607902,-0.09917257,-0.00213351,-0.00800673,-0.00
 641333,0.00056668,-0.00026346,0.00482493,-0.00095661,0.00012888,0.0004
 0291,0.04836437,-0.00527664,0.56961568,-0.16049726,-0.06302994,0.03672
 500,-0.22302097,0.23731363,0.09804645,-0.18344112,0.00840070,0.0408969
 9,0.01280682,0.00458026,0.00954119,-0.03966875,-0.03989723,0.01553273,
 0.62270484,-0.07076966,-0.21382109,0.01692434,0.22170614,-0.58759874,-
 0.17072420,0.00678642,-0.07815899,-0.00068577,0.00754462,-0.00215440,-
 0.00552894,-0.03424103,0.00150861,0.01688506,-0.14800959,0.88577336,0.
 03693899,0.01385606,-0.08627233,0.09675716,-0.17865099,-0.15164188,0.0
 4465980,-0.00062571,-0.10986601,0.03110214,-0.00701215,-0.02462329,0.0
 1600473,0.01967647,-0.00350123,-0.20581785,0.15225691,0.36946372,0.001
 12823,-0.00187592,0.00150783,-0.00387733,0.00082651,0.00573221,-0.1219
 6414,0.09595413,-0.06295534,-0.00150443,0.00194438,-0.00265769,0.00014
 715,-0.00007068,0.00061202,-0.01300996,0.02441303,-0.01875190,0.127403
 65,-0.00156656,0.00016668,0.00047558,0.00197576,0.00141757,-0.00099264
 ,0.09836440,-0.18896024,0.09279516,-0.00583579,0.00776413,-0.00556963,
 0.00013854,0.00025646,-0.00054227,0.00204539,-0.00642396,0.00044844,-0
 .10913359,0.20159419,-0.00016401,0.00028032,-0.00062212,0.00278329,-0.
 00107454,-0.00410002,-0.06256717,0.09172139,-0.09935737,-0.01801825,0.
 02342500,-0.01807066,-0.00033166,-0.00013887,-0.00003894,0.00763604,-0
 .01254251,0.00921695,0.06822976,-0.09759428,0.11511075,-0.00653251,0.0
 0054277,0.00379042,0.00314199,0.00147508,-0.00067681,-0.11969101,-0.11
 396750,-0.00832249,-0.00141154,-0.00229155,-0.00070363,0.00035016,-0.0
 0120297,0.00014252,-0.01456363,-0.02935765,-0.00367640,0.01025644,0.01
 479789,0.00217023,0.12822412,0.00028042,0.00087257,-0.00046344,0.00096
 204,0.00140618,-0.00005187,-0.12139395,-0.25531216,-0.01178964,-0.0027
 9620,-0.00511842,-0.00117391,0.00037749,0.00034215,-0.00041811,0.00372
 386,0.00119643,0.00025027,-0.01146599,-0.01721246,-0.00162398,0.129810
 02,0.27187626,0.00486800,-0.00013821,-0.00148032,-0.00139139,-0.000017
 26,-0.00021323,-0.01000924,-0.01461101,-0.04744939,-0.01715381,-0.0293
 4234,-0.00297920,0.00011004,0.00053657,0.00041261,0.00731626,0.0151232
 1,-0.00026813,0.00877067,0.01200338,0.00058568,0.00730368,0.01672219,0
 .05516928,0.00043787,0.00046766,0.00037141,0.00069969,-0.00037935,0.00
 016221,0.00679130,-0.00091114,-0.00465370,-0.26277951,0.02636795,0.110
 50940,0.00021734,0.00010635,-0.00004719,-0.00051560,-0.00077696,-0.001
 94045,0.00042418,0.00003279,0.00070388,0.00034812,0.00022634,0.0006060
 9,0.28186544,0.00033750,0.00072086,0.00051903,0.00054390,0.00010447,0.
 00009489,0.00776283,-0.00171029,-0.00517617,0.02624686,-0.05084078,-0.
 01254198,0.00028109,0.00005141,0.00007374,-0.00218610,-0.00103034,-0.0
 0142813,-0.00048261,0.00023157,0.00049017,0.00038118,-0.00000703,0.000
 34785,-0.02840609,0.04998866,0.00147166,0.00081417,0.00003837,0.002623
 40,-0.00150799,-0.00001776,0.02894041,-0.00332970,-0.01780280,0.108964
 87,-0.01265627,-0.10094580,-0.00024241,0.00000134,0.00029753,-0.006263
 82,-0.00132111,-0.00485251,0.00013102,0.00078689,0.00148234,-0.0001184
 0,-0.00013715,0.00144098,-0.11887962,0.01580815,0.11243495,-0.00021250
 ,0.00015670,0.00041359,0.00010836,-0.00013939,0.00007863,-0.00268468,-
 0.00348990,-0.00053106,-0.11702079,-0.11797069,-0.00793554,-0.00000708
 ,0.00007040,0.00010448,0.00004944,0.00075518,0.00005495,-0.00014806,-0
 .00016905,-0.00000788,0.00080950,0.00027982,-0.00074174,-0.01338024,-0
 .02511653,-0.00237259,0.12260597,0.00059297,0.00104542,0.00079890,0.00
 049563,0.00048882,-0.00017398,-0.00287049,-0.00645344,-0.00157057,-0.1
 1742807,-0.25267245,-0.01235524,0.00032456,0.00012556,-0.00006150,-0.0
 0206409,-0.00204710,0.00034489,0.00023827,0.00069879,-0.00013972,0.000
 00347,0.00129661,-0.00128426,0.00268772,0.00481301,0.00102895,0.129814
 11,0.27121371,0.00026374,0.00086154,-0.00006178,0.00061200,0.00060272,
 -0.00012961,-0.01678313,-0.02969760,-0.00373149,-0.00630235,-0.0100258
 2,-0.04698754,0.00054789,0.00025101,-0.00013411,-0.00196292,-0.0023818
 1,0.00161144,-0.00001384,0.00054101,0.00166121,-0.00034693,-0.00122149
 ,-0.00645880,0.00612836,0.01354840,0.00033431,0.00894826,0.01498133,0.
 05334281,0.00002362,0.00014343,-0.00032786,0.00031368,-0.00031258,-0.0
 0047695,-0.00214081,0.00215161,-0.00171856,-0.12173408,0.09929160,-0.0
 6581367,-0.00007141,0.00001028,0.00004892,0.00014392,-0.00045726,0.000
 84061,0.00100038,-0.00055226,-0.00048351,-0.00025791,0.00010693,-0.000
 09794,-0.01409665,0.02067240,-0.01446837,0.00988270,-0.01175271,0.0090
 8759,0.12692088,-0.00042504,-0.00014956,0.00020488,-0.00054823,-0.0000
 4268,0.00042856,-0.00595048,0.00780327,-0.00536054,0.10001707,-0.18615
 046,0.09172692,0.00014572,0.00000221,0.00004918,0.00027215,0.00078824,
 0.00040807,-0.00030268,0.00051073,-0.00278032,-0.00018723,0.00062610,0
 .00069444,0.00060408,-0.00234131,0.00050760,0.01579823,-0.01847722,0.0
 1250799,-0.10931899,0.19739273,0.00070264,-0.00015454,-0.00001273,0.00
 069888,-0.00120076,0.00014978,-0.01569697,0.02244004,-0.01772069,-0.06
 510624,0.09039367,-0.10657739,-0.00012797,0.00006542,-0.00012548,-0.00
 268394,0.00278173,0.00108706,-0.00044954,-0.00246564,-0.00588211,0.000
 09922,-0.00013699,0.00145519,0.00704730,-0.01173008,0.00771204,0.00198
 464,-0.00156767,0.00047664,0.07340419,-0.09841714,0.11948843,-0.024740
 59,-0.03561769,0.00777221,0.00225715,-0.00076648,-0.00083931,-0.000442
 17,-0.00153144,0.00006385,-0.00010974,-0.00003857,-0.00010201,-0.07499
 618,-0.07810311,0.00092301,-0.00429414,0.00616808,0.00296124,0.0000196
 7,0.00000081,-0.00002887,-0.00042310,0.00006533,0.00024677,0.00000719,
 0.00001850,0.00007665,0.00003013,0.00000824,0.00003453,0.00001336,0.00
 000451,0.00002471,0.09339957,0.00187684,0.00643370,-0.00009639,-0.0016
 7610,0.00059305,0.00080350,0.00004707,0.00020305,-0.00000785,-0.000055
 78,-0.00000329,-0.00002084,-0.09030441,-0.30283763,0.01369459,0.002207
 76,-0.00055384,-0.00118212,-0.00003847,0.00001311,0.00003041,0.0000323
 3,0.00003253,0.00000153,-0.00001048,0.00000785,0.00003122,-0.00001330,
 -0.00000607,-0.00000259,0.00000890,-0.00000773,-0.00001219,0.09582045,
 0.31928661,0.01225580,0.01800470,-0.00368286,-0.00092685,0.00033535,0.
 00119929,0.00033836,0.00073279,0.00016311,0.00000487,0.00006293,0.0000
 7196,-0.00052136,0.00782222,-0.05224846,0.00242290,-0.00304480,-0.0013
 6712,0.00000122,0.00001723,0.00000666,0.00022808,-0.00003703,-0.000133
 44,-0.00001045,-0.00002009,-0.00002226,0.00000634,-0.00002309,-0.00002
 603,-0.00000954,-0.00000516,-0.00001236,-0.01066438,-0.01365626,0.0510
 2537,-0.00991646,0.01138079,0.04036530,0.00034509,-0.00260522,-0.00037
 562,-0.00054051,0.00001196,-0.00075595,0.00001446,-0.00001209,-0.00016
 451,-0.05450132,-0.01627204,-0.03868662,0.00204719,0.00642948,0.001451
 95,-0.00009897,0.00006850,0.00008211,-0.00017511,-0.00005007,0.0000181
 2,-0.00003586,-0.00005917,0.00003178,-0.00001688,-0.00006946,-0.000126
 30,0.00000981,-0.00005344,0.00003952,-0.00020634,-0.00220404,-0.009809
 89,0.06335097,0.00338622,0.00004456,-0.00097480,0.00060529,-0.00043716
 ,-0.00007511,-0.00020918,0.00004811,-0.00042858,0.00008897,-0.00008367
 ,-0.00001527,-0.01320879,-0.09417393,-0.09935929,-0.00121863,0.0015369
 5,0.00170087,-0.00004536,-0.00001979,0.00001835,-0.00002812,-0.0000055
 3,0.00000585,0.00000021,0.00000968,-0.00004053,-0.00000465,0.00000445,
 0.00002041,0.00000762,0.00001690,0.00001456,-0.00357301,-0.00908358,-0
 .02734994,0.01217647,0.09415195,0.01243862,-0.00240409,-0.01432715,-0.
 00180082,0.00211149,0.00133873,0.00009587,0.00031561,-0.00005177,0.000
 00154,-0.00001663,0.00002290,-0.03025390,-0.09568012,-0.27351561,-0.00
 117896,-0.00684308,-0.00020612,-0.00008537,0.00003454,0.00000816,0.000
 13965,0.00002947,-0.00003848,0.00003306,0.00004516,-0.00001389,-0.0000
 1130,0.00007478,0.00009692,-0.00000036,-0.00000338,-0.00001459,-0.0008
 7410,0.00148891,0.00483495,0.02506917,0.10850250,0.29697831,-0.0369697
 8,0.01421832,-0.00804181,0.00170635,-0.00334902,-0.00114861,0.00007728
 ,-0.00029102,0.00069898,-0.00020418,-0.00004316,-0.00007729,-0.1407784
 9,0.08734468,-0.08760859,0.00125921,0.00980920,-0.00058496,0.00022320,
 -0.00016684,-0.00000396,-0.00007551,-0.00012605,0.00015448,0.00001673,
 0.00000624,0.00010542,-0.00001586,0.00001986,-0.00008690,-0.00000750,-
 0.00005568,0.00006357,0.00948519,-0.00569079,0.00668490,-0.00027607,0.
 00202296,-0.00357309,0.16555942,0.00303126,0.00104033,-0.00359630,0.00
 003440,-0.00017278,-0.00028923,0.00034786,-0.00007050,0.00053653,-0.00
 009794,0.00002197,0.00007425,0.09366628,-0.14105981,0.08917557,-0.0021
 3817,0.00098489,-0.00004289,0.00003897,-0.00003677,-0.00007142,-0.0000
 0773,0.00000678,-0.00004194,-0.00000906,0.00000226,0.00001445,0.000029
 06,-0.00003008,0.00001489,0.00000103,0.00002879,-0.00001040,0.01754441
 ,-0.01407775,0.01716113,-0.00874167,0.00799106,-0.00765516,-0.10369870
 ,0.14537162,0.01754864,-0.01142044,0.01164121,0.00105929,0.00060943,-0
 .00029532,-0.00023378,-0.00005901,-0.00070697,0.00015500,0.00003083,0.
 00004209,-0.09489778,0.09002957,-0.14040392,-0.00021008,-0.00089902,0.
 00121945,-0.00007106,0.00006222,-0.00000051,-0.00002913,0.00005167,-0.
 00004275,-0.00003031,-0.00003093,-0.00008549,0.00000923,-0.00005282,0.
 00000604,0.00001546,0.00003889,-0.00002380,0.00040571,-0.00107191,0.00
 019120,-0.01713904,0.01798099,-0.01511236,0.09341785,-0.09526948,0.143
 57113\\-0.00000010,0.00000044,-0.00000002,-0.00000074,0.00000040,-0.00
 000077,0.00000004,0.00000018,0.00000054,0.00000069,-0.00000041,0.00000
 048,-0.00000040,0.00000012,-0.00000066,-0.00000033,-0.00000039,-0.0000
 0021,-0.00000008,0.00000051,0.00000096,-0.00000018,0.00000030,0.000000
 35,0.00000096,-0.00000041,0.00000098,0.00000096,-0.00000048,0.00000062
 ,0.00000083,-0.00000071,-0.00000001,-0.00000031,0.00000012,-0.00000040
 ,-0.00000100,0.00000052,-0.00000073,-0.00000034,-0.00000021,-0.0000011
 3\\\@


 ERWIN WITH HIS PSI CAN DO
 CALCULATIONS QUITE A FEW.
 BUT ONE THING HAS NOT BEEN SEEN
 JUST WHAT DOES PSI REALLY MEAN.
 -- WALTER HUCKEL, TRANS. BY FELIX BLOCH
 Job cpu time:       0 days  1 hours 16 minutes 40.7 seconds.
 Elapsed time:       0 days  0 hours  3 minutes 50.5 seconds.
 File lengths (MBytes):  RWF=   1344 Int=      0 D2E=      0 Chk=     32 Scr=     32
 Normal termination of Gaussian 16 at Tue Apr  9 02:05:54 2019.
