 Entering Gaussian System, Link 0=g16
 Input=RJUFJBKOKNCXHH-UHFFFAOYSA-N_36by10.0_tor04_a1.com
 Output=RJUFJBKOKNCXHH-UHFFFAOYSA-N_36by10.0_tor04_a1.log
 Initial command:
 /shared/centos7/gaussian/g16/l1.exe "/scratch/underkoffler.c/gaussian_scratch/Gau-48586.inp" -scrdir="/scratch/underkoffler.c/gaussian_scratch/"
 Entering Link 1 = /shared/centos7/gaussian/g16/l1.exe PID=     48587.
  
 Copyright (c) 1988,1990,1992,1993,1995,1998,2003,2009,2016,
            Gaussian, Inc.  All Rights Reserved.
  
 This is part of the Gaussian(R) 16 program.  It is based on
 the Gaussian(R) 09 system (copyright 2009, Gaussian, Inc.),
 the Gaussian(R) 03 system (copyright 2003, Gaussian, Inc.),
 the Gaussian(R) 98 system (copyright 1998, Gaussian, Inc.),
 the Gaussian(R) 94 system (copyright 1995, Gaussian, Inc.),
 the Gaussian 92(TM) system (copyright 1992, Gaussian, Inc.),
 the Gaussian 90(TM) system (copyright 1990, Gaussian, Inc.),
 the Gaussian 88(TM) system (copyright 1988, Gaussian, Inc.),
 the Gaussian 86(TM) system (copyright 1986, Carnegie Mellon
 University), and the Gaussian 82(TM) system (copyright 1983,
 Carnegie Mellon University). Gaussian is a federally registered
 trademark of Gaussian, Inc.
  
 This software contains proprietary and confidential information,
 including trade secrets, belonging to Gaussian, Inc.
  
 This software is provided under written license and may be
 used, copied, transmitted, or stored only in accord with that
 written license.
  
 The following legend is applicable only to US Government
 contracts under FAR:
  
                    RESTRICTED RIGHTS LEGEND
  
 Use, reproduction and disclosure by the US Government is
 subject to restrictions as set forth in subparagraphs (a)
 and (c) of the Commercial Computer Software - Restricted
 Rights clause in FAR 52.227-19.
  
 Gaussian, Inc.
 340 Quinnipiac St., Bldg. 40, Wallingford CT 06492
  
  
 ---------------------------------------------------------------
 Warning -- This program may not be used in any manner that
 competes with the business of Gaussian, Inc. or will provide
 assistance to any competitor of Gaussian, Inc.  The licensee
 of this program is prohibited from giving any competitor of
 Gaussian, Inc. access to this program.  By using this program,
 the user acknowledges that Gaussian, Inc. is engaged in the
 business of creating and licensing software in the field of
 computational chemistry and represents and warrants to the
 licensee that it is not a competitor of Gaussian, Inc. and that
 it will not use this program in any manner prohibited above.
 ---------------------------------------------------------------
  

 Cite this work as:
 Gaussian 16, Revision A.03,
 M. J. Frisch, G. W. Trucks, H. B. Schlegel, G. E. Scuseria, 
 M. A. Robb, J. R. Cheeseman, G. Scalmani, V. Barone, 
 G. A. Petersson, H. Nakatsuji, X. Li, M. Caricato, A. V. Marenich, 
 J. Bloino, B. G. Janesko, R. Gomperts, B. Mennucci, H. P. Hratchian, 
 J. V. Ortiz, A. F. Izmaylov, J. L. Sonnenberg, D. Williams-Young, 
 F. Ding, F. Lipparini, F. Egidi, J. Goings, B. Peng, A. Petrone, 
 T. Henderson, D. Ranasinghe, V. G. Zakrzewski, J. Gao, N. Rega, 
 G. Zheng, W. Liang, M. Hada, M. Ehara, K. Toyota, R. Fukuda, 
 J. Hasegawa, M. Ishida, T. Nakajima, Y. Honda, O. Kitao, H. Nakai, 
 T. Vreven, K. Throssell, J. A. Montgomery, Jr., J. E. Peralta, 
 F. Ogliaro, M. J. Bearpark, J. J. Heyd, E. N. Brothers, K. N. Kudin, 
 V. N. Staroverov, T. A. Keith, R. Kobayashi, J. Normand, 
 K. Raghavachari, A. P. Rendell, J. C. Burant, S. S. Iyengar, 
 J. Tomasi, M. Cossi, J. M. Millam, M. Klene, C. Adamo, R. Cammi, 
 J. W. Ochterski, R. L. Martin, K. Morokuma, O. Farkas, 
 J. B. Foresman, and D. J. Fox, Gaussian, Inc., Wallingford CT, 2016.
 
 ******************************************
 Gaussian 16:  EM64L-G16RevA.03 25-Dec-2016
                11-Mar-2019 
 ******************************************
 %nprocshared=20
 Will use up to   20 processors via shared memory.
 %mem=5GB
 ----------------------------------------------
 #p m062x/6-311+g(2df,2p) Opt=(CalcFC,ModRedun)
 ----------------------------------------------
 1/10=4,18=120,19=15,26=3,38=1/1,3;
 2/9=110,12=2,17=6,18=5,40=1/2;
 3/5=4,6=6,7=214,11=2,25=1,30=1,71=2,74=-55,140=1/1,2,3;
 4//1;
 5/5=2,38=5/2;
 8/6=4,10=90,11=11/1;
 11/6=1,8=1,9=11,15=111,16=1/1,2,10;
 10/6=1,13=1/2;
 6/7=2,8=2,9=2,10=2,28=1/1;
 7/10=1,18=20,25=1/1,2,3,16;
 1/10=4,18=20,19=15,26=3/3(2);
 2/9=110/2;
 99//99;
 2/9=110/2;
 3/5=4,6=6,7=214,11=2,25=1,30=1,71=1,74=-55/1,2,3;
 4/5=5,16=3,69=1/1;
 5/5=2,38=5/2;
 7//1,2,3,16;
 1/18=20,19=15,26=3/3(-5);
 2/9=110/2;
 6/7=2,8=2,9=2,10=2,19=2,28=1/1;
 99/9=1/99;
 Leave Link    1 at Mon Mar 11 19:45:09 2019, MaxMem=   671088640 cpu:              33.9 elap:               1.8
 (Enter /shared/centos7/gaussian/g16/l101.exe)
 ----------------------------------------
 Gaussian Input Prepared from Scan Object
 ----------------------------------------
 Symbolic Z-matrix:
 Charge =  0 Multiplicity = 1
 O                     1.14326  -0.70073   0. 
 O                     0.10186   1.27773  0. 
 C                    -1.21113  -0.74369  0. 
 C                    -2.46073   0.11987   0. 
 C                     2.38807  -0.00667   0. 
 C                     0.05125   0.07888  0. 
 H                    -1.17195  -1.40094  -0.87043 
 H                    -1.17195  -1.40095   0.87042 
 H                    -2.48427   0.76359   0.87706 
 H                    -3.3542   -0.5015    0. 
 H                    -2.48427   0.76359  -0.87705 
 H                     3.15708  -0.77177   0. 
 H                     2.47194   0.62082  -0.88515 
 H                     2.47194   0.62082   0.88515 
 
 The following ModRedundant input section has been read:
 B       1       5 B                                                           
 B       3       7 B                                                           
 B       5      14 B                                                           
 B       1       6 B                                                           
 B       4      10 B                                                           
 B       4      11 B                                                           
 B       4       9 B                                                           
 B       5      12 B                                                           
 B       5      13 B                                                           
 B       2       6 B                                                           
 B       3       4 B                                                           
 B       3       6 B                                                           
 B       3       8 B                                                           
 D       6       1       5      14 S  36 10.000                                
 
 ITRead=  0  0  0  0  0  0  0  0  0  0  0  0  0  0
 MicOpt= -1 -1 -1 -1 -1 -1 -1 -1 -1 -1 -1 -1 -1 -1
 NAtoms=     14 NQM=       14 NQMF=       0 NMMI=      0 NMMIF=      0
                NMic=       0 NMicF=      0.
                    Isotopes and Nuclear Properties:
 (Nuclear quadrupole moments (NQMom) in fm**2, nuclear magnetic moments (NMagM)
  in nuclear magnetons)

  Atom         1           2           3           4           5           6           7           8           9          10
 IAtWgt=          16          16          12          12          12          12           1           1           1           1
 AtmWgt=  15.9949146  15.9949146  12.0000000  12.0000000  12.0000000  12.0000000   1.0078250   1.0078250   1.0078250   1.0078250
 NucSpn=           0           0           0           0           0           0           1           1           1           1
 AtZEff=  -0.0000000  -0.0000000  -0.0000000  -0.0000000  -0.0000000  -0.0000000  -0.0000000  -0.0000000  -0.0000000  -0.0000000
 NQMom=    0.0000000   0.0000000   0.0000000   0.0000000   0.0000000   0.0000000   0.0000000   0.0000000   0.0000000   0.0000000
 NMagM=    0.0000000   0.0000000   0.0000000   0.0000000   0.0000000   0.0000000   2.7928460   2.7928460   2.7928460   2.7928460
 AtZNuc=   8.0000000   8.0000000   6.0000000   6.0000000   6.0000000   6.0000000   1.0000000   1.0000000   1.0000000   1.0000000

  Atom        11          12          13          14
 IAtWgt=           1           1           1           1
 AtmWgt=   1.0078250   1.0078250   1.0078250   1.0078250
 NucSpn=           1           1           1           1
 AtZEff=  -0.0000000  -0.0000000  -0.0000000  -0.0000000
 NQMom=    0.0000000   0.0000000   0.0000000   0.0000000
 NMagM=    2.7928460   2.7928460   2.7928460   2.7928460
 AtZNuc=   1.0000000   1.0000000   1.0000000   1.0000000
 Leave Link  101 at Mon Mar 11 19:45:09 2019, MaxMem=   671088640 cpu:               5.5 elap:               0.3
 (Enter /shared/centos7/gaussian/g16/l103.exe)

 GradGradGradGradGradGradGradGradGradGradGradGradGradGradGradGradGradGrad
 Berny optimization.
 Initialization pass.
                           ----------------------------
                           !    Initial Parameters    !
                           ! (Angstroms and Degrees)  !
 --------------------------                            --------------------------
 ! Name  Definition              Value          Derivative Info.                !
 --------------------------------------------------------------------------------
 ! R1    R(1,5)                  1.4252         calculate D2E/DX2 analytically  !
 ! R2    R(1,6)                  1.3417         calculate D2E/DX2 analytically  !
 ! R3    R(2,6)                  1.1999         calculate D2E/DX2 analytically  !
 ! R4    R(3,4)                  1.519          calculate D2E/DX2 analytically  !
 ! R5    R(3,6)                  1.5067         calculate D2E/DX2 analytically  !
 ! R6    R(3,7)                  1.0914         calculate D2E/DX2 analytically  !
 ! R7    R(3,8)                  1.0914         calculate D2E/DX2 analytically  !
 ! R8    R(4,9)                  1.0882         calculate D2E/DX2 analytically  !
 ! R9    R(4,10)                 1.0883         calculate D2E/DX2 analytically  !
 ! R10   R(4,11)                 1.0882         calculate D2E/DX2 analytically  !
 ! R11   R(5,12)                 1.0848         calculate D2E/DX2 analytically  !
 ! R12   R(5,13)                 1.0882         calculate D2E/DX2 analytically  !
 ! R13   R(5,14)                 1.0882         calculate D2E/DX2 analytically  !
 ! A1    A(5,1,6)              115.3337         calculate D2E/DX2 analytically  !
 ! A2    A(4,3,6)              112.265          calculate D2E/DX2 analytically  !
 ! A3    A(4,3,7)              111.8328         calculate D2E/DX2 analytically  !
 ! A4    A(4,3,8)              111.8328         calculate D2E/DX2 analytically  !
 ! A5    A(6,3,7)              107.379          calculate D2E/DX2 analytically  !
 ! A6    A(6,3,8)              107.379          calculate D2E/DX2 analytically  !
 ! A7    A(7,3,8)              105.7892         calculate D2E/DX2 analytically  !
 ! A8    A(3,4,9)              110.7385         calculate D2E/DX2 analytically  !
 ! A9    A(3,4,10)             110.5363         calculate D2E/DX2 analytically  !
 ! A10   A(3,4,11)             110.7385         calculate D2E/DX2 analytically  !
 ! A11   A(9,4,10)             108.6625         calculate D2E/DX2 analytically  !
 ! A12   A(9,4,11)             107.409          calculate D2E/DX2 analytically  !
 ! A13   A(10,4,11)            108.6625         calculate D2E/DX2 analytically  !
 ! A14   A(1,5,12)             106.0037         calculate D2E/DX2 analytically  !
 ! A15   A(1,5,13)             110.3716         calculate D2E/DX2 analytically  !
 ! A16   A(1,5,14)             110.3716         calculate D2E/DX2 analytically  !
 ! A17   A(12,5,13)            110.6129         calculate D2E/DX2 analytically  !
 ! A18   A(12,5,14)            110.6129         calculate D2E/DX2 analytically  !
 ! A19   A(13,5,14)            108.8545         calculate D2E/DX2 analytically  !
 ! A20   A(1,6,2)              123.1066         calculate D2E/DX2 analytically  !
 ! A21   A(1,6,3)              111.3877         calculate D2E/DX2 analytically  !
 ! A22   A(2,6,3)              125.5057         calculate D2E/DX2 analytically  !
 ! D1    D(6,1,5,12)          -180.0            calculate D2E/DX2 analytically  !
 ! D2    D(6,1,5,13)           -60.186          calculate D2E/DX2 analytically  !
 ! D3    D(6,1,5,14)            60.186          Scan                            !
 ! D4    D(5,1,6,2)              0.0            calculate D2E/DX2 analytically  !
 ! D5    D(5,1,6,3)            180.0            calculate D2E/DX2 analytically  !
 ! D6    D(6,3,4,9)            -59.521          calculate D2E/DX2 analytically  !
 ! D7    D(6,3,4,10)           180.0            calculate D2E/DX2 analytically  !
 ! D8    D(6,3,4,11)            59.521          calculate D2E/DX2 analytically  !
 ! D9    D(7,3,4,9)            179.7004         calculate D2E/DX2 analytically  !
 ! D10   D(7,3,4,10)            59.2214         calculate D2E/DX2 analytically  !
 ! D11   D(7,3,4,11)           -61.2576         calculate D2E/DX2 analytically  !
 ! D12   D(8,3,4,9)             61.2575         calculate D2E/DX2 analytically  !
 ! D13   D(8,3,4,10)           -59.2214         calculate D2E/DX2 analytically  !
 ! D14   D(8,3,4,11)          -179.7004         calculate D2E/DX2 analytically  !
 ! D15   D(4,3,6,1)            179.9998         calculate D2E/DX2 analytically  !
 ! D16   D(4,3,6,2)             -0.0002         calculate D2E/DX2 analytically  !
 ! D17   D(7,3,6,1)            -56.6864         calculate D2E/DX2 analytically  !
 ! D18   D(7,3,6,2)            123.3136         calculate D2E/DX2 analytically  !
 ! D19   D(8,3,6,1)             56.6861         calculate D2E/DX2 analytically  !
 ! D20   D(8,3,6,2)           -123.3139         calculate D2E/DX2 analytically  !
 --------------------------------------------------------------------------------
 Trust Radius=3.00D-01 FncErr=1.00D-07 GrdErr=1.00D-06 EigMax=2.50D+02 EigMin=1.00D-04
 Number of optimizations in scan=  37
 Number of steps in this run=     65 maximum allowed number of steps=    100.
 GradGradGradGradGradGradGradGradGradGradGradGradGradGradGradGradGradGrad

 Leave Link  103 at Mon Mar 11 19:45:09 2019, MaxMem=   671088640 cpu:               0.2 elap:               0.0
 (Enter /shared/centos7/gaussian/g16/l202.exe)
                          Input orientation:                          
 ---------------------------------------------------------------------
 Center     Atomic      Atomic             Coordinates (Angstroms)
 Number     Number       Type             X           Y           Z
 ---------------------------------------------------------------------
      1          8           0        1.143256   -0.700732    0.000000
      2          8           0        0.101861    1.277730   -0.000000
      3          6           0       -1.211130   -0.743685   -0.000001
      4          6           0       -2.460734    0.119865    0.000002
      5          6           0        2.388074   -0.006671    0.000001
      6          6           0        0.051249    0.078882   -0.000000
      7          1           0       -1.171953   -1.400941   -0.870426
      8          1           0       -1.171952   -1.400946    0.870420
      9          1           0       -2.484273    0.763589    0.877061
     10          1           0       -3.354195   -0.501498    0.000000
     11          1           0       -2.484274    0.763594   -0.877054
     12          1           0        3.157077   -0.771767    0.000001
     13          1           0        2.471940    0.620820   -0.885153
     14          1           0        2.471940    0.620820    0.885154
 ---------------------------------------------------------------------
                    Distance matrix (angstroms):
                    1          2          3          4          5
     1  O    0.000000
     2  O    2.235803   0.000000
     3  C    2.354779   2.410408   0.000000
     4  C    3.696232   2.812036   1.518957   0.000000
     5  C    1.425234   2.622300   3.673890   4.850460   0.000000
     6  C    1.341744   1.199916   1.506724   2.512318   2.338391
     7  H    2.570628   3.091201   1.091403   2.175191   3.921151
     8  H    2.570626   3.091203   1.091403   2.175191   3.921150
     9  H    4.009045   2.778789   2.159168   1.088195   5.010221
    10  H    4.501863   3.887156   2.156706   1.088285   5.763551
    11  H    4.009046   2.778787   2.159168   1.088195   5.010221
    12  H    2.015074   3.678965   4.368298   5.688130   1.084775
    13  H    2.072534   2.613867   4.026211   5.036441   1.088244
    14  H    2.072534   2.613867   4.026212   5.036440   1.088244
                    6          7          8          9         10
     6  C    0.000000
     7  H    2.108018   0.000000
     8  H    2.108018   1.740846   0.000000
     9  H    2.768923   3.075888   2.531293   0.000000
    10  H    3.454547   2.515715   2.515716   1.768176   0.000000
    11  H    2.768923   2.531293   3.075888   1.754116   1.768176
    12  H    3.220213   4.460270   4.460268   5.911970   6.516880
    13  H    2.633807   4.167216   4.521894   5.262113   5.998913
    14  H    2.633807   4.521895   4.167217   4.958276   5.998912
                   11         12         13         14
    11  H    0.000000
    12  H    5.911972   0.000000
    13  H    4.958277   1.786676   0.000000
    14  H    5.262112   1.786676   1.770306   0.000000
 Stoichiometry    C4H8O2
 Framework group  C1[X(C4H8O2)]
 Deg. of freedom    36
 Full point group                 C1      NOp   1
 Largest Abelian subgroup         C1      NOp   1
 Largest concise Abelian subgroup C1      NOp   1
                         Standard orientation:                         
 ---------------------------------------------------------------------
 Center     Atomic      Atomic             Coordinates (Angstroms)
 Number     Number       Type             X           Y           Z
 ---------------------------------------------------------------------
      1          8           0        1.143256   -0.700732    0.000000
      2          8           0        0.101861    1.277730   -0.000000
      3          6           0       -1.211130   -0.743685   -0.000001
      4          6           0       -2.460734    0.119865    0.000001
      5          6           0        2.388074   -0.006671    0.000000
      6          6           0        0.051249    0.078882   -0.000000
      7          1           0       -1.171953   -1.400941   -0.870426
      8          1           0       -1.171952   -1.400946    0.870420
      9          1           0       -2.484273    0.763589    0.877061
     10          1           0       -3.354195   -0.501498    0.000000
     11          1           0       -2.484274    0.763594   -0.877055
     12          1           0        3.157078   -0.771767    0.000001
     13          1           0        2.471940    0.620820   -0.885153
     14          1           0        2.471940    0.620821    0.885153
 ---------------------------------------------------------------------
 Rotational constants (GHZ):           9.6754876           2.1660943           1.8295412
 Leave Link  202 at Mon Mar 11 19:45:09 2019, MaxMem=   671088640 cpu:               0.2 elap:               0.0
 (Enter /shared/centos7/gaussian/g16/l301.exe)
 Standard basis: 6-311+G(2df,2p) (5D, 7F)
 Ernie: Thresh=  0.10000D-02 Tol=  0.10000D-05 Strict=F.
 There are   306 symmetry adapted cartesian basis functions of A   symmetry.
 There are   276 symmetry adapted basis functions of A   symmetry.
   276 basis functions,   400 primitive gaussians,   306 cartesian basis functions
    24 alpha electrons       24 beta electrons
       nuclear repulsion energy       246.5133791555 Hartrees.
 IExCor= 4336 DFT=T Ex+Corr=M062X ExCW=0 ScaHFX=  0.540000
 ScaDFX=  1.000000  1.000000  1.000000  1.000000 ScalE2=  1.000000  1.000000
 IRadAn=      5 IRanWt=     -1 IRanGd=            0 ICorTp=0 IEmpDi=  4
 NAtoms=   14 NActive=   14 NUniq=   14 SFac= 1.00D+00 NAtFMM=   60 NAOKFM=F Big=F
 Integral buffers will be    131072 words long.
 Raffenetti 2 integral format.
 Two-electron integral symmetry is turned on.
 Leave Link  301 at Mon Mar 11 19:45:09 2019, MaxMem=   671088640 cpu:               0.9 elap:               0.1
 (Enter /shared/centos7/gaussian/g16/l302.exe)
 NPDir=0 NMtPBC=     1 NCelOv=     1 NCel=       1 NClECP=     1 NCelD=      1
         NCelK=      1 NCelE2=     1 NClLst=     1 CellRange=     0.0.
 One-electron integrals computed using PRISM.
 One-electron integral symmetry used in STVInt
 NBasis=   276 RedAO= T EigKep=  2.92D-05  NBF=   276
 NBsUse=   276 1.00D-06 EigRej= -1.00D+00 NBFU=   276
 Precomputing XC quadrature grid using
 IXCGrd= 4 IRadAn=           5 IRanWt=          -1 IRanGd=           0 AccXCQ= 0.00D+00.
 Generated NRdTot=       0 NPtTot=           0 NUsed=           0 NTot=          32
 NSgBfM=   306   306   306   306   306 MxSgAt=    14 MxSgA2=    14.
 Leave Link  302 at Mon Mar 11 19:45:10 2019, MaxMem=   671088640 cpu:               5.4 elap:               0.3
 (Enter /shared/centos7/gaussian/g16/l303.exe)
 DipDrv:  MaxL=1.
 Leave Link  303 at Mon Mar 11 19:45:10 2019, MaxMem=   671088640 cpu:               0.7 elap:               0.1
 (Enter /shared/centos7/gaussian/g16/l401.exe)
 ExpMin= 4.38D-02 ExpMax= 8.59D+03 ExpMxC= 1.30D+03 IAcc=3 IRadAn=         5 AccDes= 0.00D+00
 Harris functional with IExCor= 1009 and IRadAn=       5 diagonalized for initial guess.
 HarFok:  IExCor= 1009 AccDes= 0.00D+00 IRadAn=         5 IDoV= 1 UseB2=F ITyADJ=14
 ICtDFT=  3500011 ScaDFX=  1.000000  1.000000  1.000000  1.000000
 FoFCou: FMM=F IPFlag=           0 FMFlag=      100000 FMFlg1=           0
         NFxFlg=           0 DoJE=T BraDBF=F KetDBF=T FulRan=T
         wScrn=  0.000000 ICntrl=       500 IOpCl=  0 I1Cent=   200000004 NGrid=           0
         NMat0=    1 NMatS0=      1 NMatT0=    0 NMatD0=    1 NMtDS0=    0 NMtDT0=    0
 Petite list used in FoFCou.
 Harris En= -307.574768962630    
 JPrj=0 DoOrth=F DoCkMO=F.
 Leave Link  401 at Mon Mar 11 19:45:11 2019, MaxMem=   671088640 cpu:              16.4 elap:               0.8
 (Enter /shared/centos7/gaussian/g16/l502.exe)
 Integral symmetry usage will be decided dynamically.
 Closed shell SCF:
 Using DIIS extrapolation, IDIIS=  1040.
 NGot=   671088640 LenX=   670892442 LenY=   670798365
 Requested convergence on RMS density matrix=1.00D-08 within 128 cycles.
 Requested convergence on MAX density matrix=1.00D-06.
 Requested convergence on             energy=1.00D-06.
 No special actions if energy rises.
 Fock matrices will be formed incrementally for  20 cycles.

 Cycle   1  Pass 1  IDiag  1:
 FoFJK:  IHMeth= 1 ICntrl=       0 DoSepK=F KAlg= 0 I1Cent=           0 FoldK=F
 IRaf= 960000000 NMat=       1 IRICut=       1 DoRegI=T DoRafI=F ISym2E= 0 IDoP0=0 IntGTp=1.
 FoFCou: FMM=F IPFlag=           0 FMFlag=      100000 FMFlg1=           0
         NFxFlg=           0 DoJE=F BraDBF=F KetDBF=F FulRan=T
         wScrn=  0.000000 ICntrl=         0 IOpCl=  0 I1Cent=           0 NGrid=           0
         NMat0=    1 NMatS0=      1 NMatT0=    0 NMatD0=    1 NMtDS0=    0 NMtDT0=    0
 Symmetry not used in FoFCou.
 E= -307.466600672735    
 DIIS: error= 3.26D-02 at cycle   1 NSaved=   1.
 NSaved= 1 IEnMin= 1 EnMin= -307.466600672735     IErMin= 1 ErrMin= 3.26D-02
 ErrMax= 3.26D-02  0.00D+00 EMaxC= 1.00D-01 BMatC= 2.86D-01 BMatP= 2.86D-01
 IDIUse=3 WtCom= 6.74D-01 WtEn= 3.26D-01
 Coeff-Com:  0.100D+01
 Coeff-En:   0.100D+01
 Coeff:      0.100D+01
 Gap=     0.322 Goal=   None    Shift=    0.000
 GapD=    0.322 DampG=1.000 DampE=0.500 DampFc=0.5000 IDamp=-1.
 Damping current iteration by 5.00D-01
 RMSDP=2.70D-03 MaxDP=1.09D-01              OVMax= 1.90D-01

 Cycle   2  Pass 1  IDiag  1:
 RMSU=  1.32D-03    CP:  9.71D-01
 E= -307.566995409294     Delta-E=       -0.100394736558 Rises=F Damp=T
 DIIS: error= 5.85D-03 at cycle   2 NSaved=   2.
 NSaved= 2 IEnMin= 2 EnMin= -307.566995409294     IErMin= 2 ErrMin= 5.85D-03
 ErrMax= 5.85D-03  0.00D+00 EMaxC= 1.00D-01 BMatC= 2.29D-02 BMatP= 2.86D-01
 IDIUse=3 WtCom= 9.41D-01 WtEn= 5.85D-02
 Coeff-Com: -0.253D-01 0.103D+01
 Coeff-En:   0.000D+00 0.100D+01
 Coeff:     -0.238D-01 0.102D+01
 Gap=     0.388 Goal=   None    Shift=    0.000
 RMSDP=1.08D-03 MaxDP=8.07D-02 DE=-1.00D-01 OVMax= 1.12D-01

 Cycle   3  Pass 1  IDiag  1:
 RMSU=  1.04D-03    CP:  9.42D-01  9.57D-01
 E= -307.665118869113     Delta-E=       -0.098123459819 Rises=F Damp=F
 DIIS: error= 7.46D-03 at cycle   3 NSaved=   3.
 NSaved= 3 IEnMin= 3 EnMin= -307.665118869113     IErMin= 2 ErrMin= 5.85D-03
 ErrMax= 7.46D-03  0.00D+00 EMaxC= 1.00D-01 BMatC= 1.57D-02 BMatP= 2.29D-02
 IDIUse=3 WtCom= 9.25D-01 WtEn= 7.46D-02
 Coeff-Com: -0.816D-01 0.486D+00 0.596D+00
 Coeff-En:   0.000D+00 0.000D+00 0.100D+01
 Coeff:     -0.755D-01 0.450D+00 0.626D+00
 Gap=     0.369 Goal=   None    Shift=    0.000
 RMSDP=3.85D-04 MaxDP=1.59D-02 DE=-9.81D-02 OVMax= 4.50D-02

 Cycle   4  Pass 1  IDiag  1:
 RMSU=  3.64D-04    CP:  9.43D-01  1.04D+00  9.41D-01
 E= -307.674247245372     Delta-E=       -0.009128376258 Rises=F Damp=F
 DIIS: error= 3.35D-03 at cycle   4 NSaved=   4.
 NSaved= 4 IEnMin= 4 EnMin= -307.674247245372     IErMin= 4 ErrMin= 3.35D-03
 ErrMax= 3.35D-03  0.00D+00 EMaxC= 1.00D-01 BMatC= 2.86D-03 BMatP= 1.57D-02
 IDIUse=3 WtCom= 9.67D-01 WtEn= 3.35D-02
 Coeff-Com: -0.292D-01 0.814D-01 0.331D+00 0.617D+00
 Coeff-En:   0.000D+00 0.000D+00 0.151D+00 0.849D+00
 Coeff:     -0.282D-01 0.787D-01 0.325D+00 0.624D+00
 Gap=     0.367 Goal=   None    Shift=    0.000
 RMSDP=1.36D-04 MaxDP=5.31D-03 DE=-9.13D-03 OVMax= 1.17D-02

 Cycle   5  Pass 1  IDiag  1:
 RMSU=  6.53D-05    CP:  9.40D-01  1.02D+00  1.00D+00  7.41D-01
 E= -307.676314094255     Delta-E=       -0.002066848884 Rises=F Damp=F
 DIIS: error= 4.16D-04 at cycle   5 NSaved=   5.
 NSaved= 5 IEnMin= 5 EnMin= -307.676314094255     IErMin= 5 ErrMin= 4.16D-04
 ErrMax= 4.16D-04  0.00D+00 EMaxC= 1.00D-01 BMatC= 5.71D-05 BMatP= 2.86D-03
 IDIUse=3 WtCom= 9.96D-01 WtEn= 4.16D-03
 Coeff-Com: -0.703D-02 0.132D-01 0.103D+00 0.241D+00 0.650D+00
 Coeff-En:   0.000D+00 0.000D+00 0.000D+00 0.000D+00 0.100D+01
 Coeff:     -0.700D-02 0.131D-01 0.102D+00 0.240D+00 0.651D+00
 Gap=     0.367 Goal=   None    Shift=    0.000
 RMSDP=2.30D-05 MaxDP=1.12D-03 DE=-2.07D-03 OVMax= 2.30D-03

 Cycle   6  Pass 1  IDiag  1:
 RMSU=  1.96D-05    CP:  9.39D-01  1.02D+00  1.01D+00  7.62D-01  9.38D-01
 E= -307.676353115759     Delta-E=       -0.000039021504 Rises=F Damp=F
 DIIS: error= 1.28D-04 at cycle   6 NSaved=   6.
 NSaved= 6 IEnMin= 6 EnMin= -307.676353115759     IErMin= 6 ErrMin= 1.28D-04
 ErrMax= 1.28D-04  0.00D+00 EMaxC= 1.00D-01 BMatC= 7.45D-06 BMatP= 5.71D-05
 IDIUse=3 WtCom= 9.99D-01 WtEn= 1.28D-03
 Coeff-Com: -0.185D-03-0.233D-02 0.150D-01 0.468D-01 0.296D+00 0.645D+00
 Coeff-En:   0.000D+00 0.000D+00 0.000D+00 0.000D+00 0.000D+00 0.100D+01
 Coeff:     -0.185D-03-0.233D-02 0.150D-01 0.467D-01 0.296D+00 0.645D+00
 Gap=     0.367 Goal=   None    Shift=    0.000
 RMSDP=9.01D-06 MaxDP=4.00D-04 DE=-3.90D-05 OVMax= 4.91D-04

 Cycle   7  Pass 1  IDiag  1:
 RMSU=  6.38D-06    CP:  9.39D-01  1.01D+00  1.01D+00  7.68D-01  9.92D-01
                    CP:  9.86D-01
 E= -307.676358818181     Delta-E=       -0.000005702422 Rises=F Damp=F
 DIIS: error= 4.10D-05 at cycle   7 NSaved=   7.
 NSaved= 7 IEnMin= 7 EnMin= -307.676358818181     IErMin= 7 ErrMin= 4.10D-05
 ErrMax= 4.10D-05  0.00D+00 EMaxC= 1.00D-01 BMatC= 4.06D-07 BMatP= 7.45D-06
 IDIUse=1 WtCom= 1.00D+00 WtEn= 0.00D+00
 Coeff-Com:  0.113D-02-0.266D-02-0.101D-01-0.241D-01-0.133D-01 0.127D+00
 Coeff-Com:  0.922D+00
 Coeff:      0.113D-02-0.266D-02-0.101D-01-0.241D-01-0.133D-01 0.127D+00
 Coeff:      0.922D+00
 Gap=     0.367 Goal=   None    Shift=    0.000
 RMSDP=4.27D-06 MaxDP=1.27D-04 DE=-5.70D-06 OVMax= 3.89D-04

 Cycle   8  Pass 1  IDiag  1:
 RMSU=  2.42D-06    CP:  9.39D-01  1.01D+00  1.01D+00  7.68D-01  1.02D+00
                    CP:  1.07D+00  1.09D+00
 E= -307.676359347556     Delta-E=       -0.000000529375 Rises=F Damp=F
 DIIS: error= 1.29D-05 at cycle   8 NSaved=   8.
 NSaved= 8 IEnMin= 8 EnMin= -307.676359347556     IErMin= 8 ErrMin= 1.29D-05
 ErrMax= 1.29D-05  0.00D+00 EMaxC= 1.00D-01 BMatC= 7.18D-08 BMatP= 4.06D-07
 IDIUse=1 WtCom= 1.00D+00 WtEn= 0.00D+00
 Coeff-Com:  0.436D-03-0.803D-03-0.445D-02-0.131D-01-0.299D-01-0.176D-01
 Coeff-Com:  0.332D+00 0.734D+00
 Coeff:      0.436D-03-0.803D-03-0.445D-02-0.131D-01-0.299D-01-0.176D-01
 Coeff:      0.332D+00 0.734D+00
 Gap=     0.367 Goal=   None    Shift=    0.000
 RMSDP=1.10D-06 MaxDP=3.21D-05 DE=-5.29D-07 OVMax= 9.13D-05

 Cycle   9  Pass 1  IDiag  1:
 RMSU=  7.94D-07    CP:  9.39D-01  1.01D+00  1.01D+00  7.67D-01  1.03D+00
                    CP:  1.08D+00  1.16D+00  1.04D+00
 E= -307.676359425676     Delta-E=       -0.000000078119 Rises=F Damp=F
 DIIS: error= 4.56D-06 at cycle   9 NSaved=   9.
 NSaved= 9 IEnMin= 9 EnMin= -307.676359425676     IErMin= 9 ErrMin= 4.56D-06
 ErrMax= 4.56D-06  0.00D+00 EMaxC= 1.00D-01 BMatC= 3.66D-09 BMatP= 7.18D-08
 IDIUse=1 WtCom= 1.00D+00 WtEn= 0.00D+00
 Coeff-Com: -0.766D-04 0.189D-03 0.878D-03 0.119D-02-0.147D-02-0.154D-01
 Coeff-Com: -0.664D-01 0.668D-01 0.101D+01
 Coeff:     -0.766D-04 0.189D-03 0.878D-03 0.119D-02-0.147D-02-0.154D-01
 Coeff:     -0.664D-01 0.668D-01 0.101D+01
 Gap=     0.367 Goal=   None    Shift=    0.000
 RMSDP=4.11D-07 MaxDP=1.61D-05 DE=-7.81D-08 OVMax= 4.17D-05

 Cycle  10  Pass 1  IDiag  1:
 RMSU=  2.09D-07    CP:  9.39D-01  1.01D+00  1.01D+00  7.66D-01  1.03D+00
                    CP:  1.07D+00  1.17D+00  1.13D+00  1.17D+00
 E= -307.676359431263     Delta-E=       -0.000000005588 Rises=F Damp=F
 DIIS: error= 5.83D-07 at cycle  10 NSaved=  10.
 NSaved=10 IEnMin=10 EnMin= -307.676359431263     IErMin=10 ErrMin= 5.83D-07
 ErrMax= 5.83D-07  0.00D+00 EMaxC= 1.00D-01 BMatC= 1.38D-10 BMatP= 3.66D-09
 IDIUse=1 WtCom= 1.00D+00 WtEn= 0.00D+00
 Coeff-Com: -0.277D-04 0.598D-04 0.341D-03 0.765D-03 0.101D-02-0.948D-03
 Coeff-Com: -0.253D-01-0.295D-01 0.148D+00 0.906D+00
 Coeff:     -0.277D-04 0.598D-04 0.341D-03 0.765D-03 0.101D-02-0.948D-03
 Coeff:     -0.253D-01-0.295D-01 0.148D+00 0.906D+00
 Gap=     0.367 Goal=   None    Shift=    0.000
 RMSDP=8.43D-08 MaxDP=3.97D-06 DE=-5.59D-09 OVMax= 7.58D-06

 Cycle  11  Pass 1  IDiag  1:
 RMSU=  4.02D-08    CP:  9.39D-01  1.01D+00  1.01D+00  7.66D-01  1.03D+00
                    CP:  1.07D+00  1.17D+00  1.15D+00  1.22D+00  1.07D+00
 E= -307.676359431436     Delta-E=       -0.000000000172 Rises=F Damp=F
 DIIS: error= 2.56D-07 at cycle  11 NSaved=  11.
 NSaved=11 IEnMin=11 EnMin= -307.676359431436     IErMin=11 ErrMin= 2.56D-07
 ErrMax= 2.56D-07  0.00D+00 EMaxC= 1.00D-01 BMatC= 2.23D-11 BMatP= 1.38D-10
 IDIUse=1 WtCom= 1.00D+00 WtEn= 0.00D+00
 Coeff-Com: -0.381D-05 0.638D-05 0.696D-04 0.188D-03 0.442D-03 0.609D-03
 Coeff-Com: -0.439D-02-0.145D-01-0.162D-01 0.291D+00 0.742D+00
 Coeff:     -0.381D-05 0.638D-05 0.696D-04 0.188D-03 0.442D-03 0.609D-03
 Coeff:     -0.439D-02-0.145D-01-0.162D-01 0.291D+00 0.742D+00
 Gap=     0.367 Goal=   None    Shift=    0.000
 RMSDP=2.02D-08 MaxDP=9.58D-07 DE=-1.72D-10 OVMax= 1.65D-06

 Cycle  12  Pass 1  IDiag  1:
 RMSU=  1.44D-08    CP:  9.39D-01  1.01D+00  1.01D+00  7.66D-01  1.03D+00
                    CP:  1.07D+00  1.17D+00  1.15D+00  1.23D+00  1.13D+00
                    CP:  1.01D+00
 E= -307.676359431462     Delta-E=       -0.000000000026 Rises=F Damp=F
 DIIS: error= 7.65D-08 at cycle  12 NSaved=  12.
 NSaved=12 IEnMin=12 EnMin= -307.676359431462     IErMin=12 ErrMin= 7.65D-08
 ErrMax= 7.65D-08  0.00D+00 EMaxC= 1.00D-01 BMatC= 1.92D-12 BMatP= 2.23D-11
 IDIUse=1 WtCom= 1.00D+00 WtEn= 0.00D+00
 Coeff-Com:  0.197D-05-0.427D-05-0.132D-04-0.283D-04 0.222D-04 0.207D-03
 Coeff-Com:  0.137D-02-0.965D-03-0.201D-01-0.164D-01 0.221D+00 0.815D+00
 Coeff:      0.197D-05-0.427D-05-0.132D-04-0.283D-04 0.222D-04 0.207D-03
 Coeff:      0.137D-02-0.965D-03-0.201D-01-0.164D-01 0.221D+00 0.815D+00
 Gap=     0.367 Goal=   None    Shift=    0.000
 RMSDP=6.15D-09 MaxDP=2.25D-07 DE=-2.58D-11 OVMax= 3.72D-07

 SCF Done:  E(RM062X) =  -307.676359431     A.U. after   12 cycles
            NFock= 12  Conv=0.61D-08     -V/T= 2.0036
 KE= 3.065735887955D+02 PE=-1.212779270351D+03 EE= 3.520159429690D+02
 Leave Link  502 at Mon Mar 11 19:45:37 2019, MaxMem=   671088640 cpu:             532.7 elap:              26.7
 (Enter /shared/centos7/gaussian/g16/l801.exe)
 DoSCS=F DFT=T ScalE2(SS,OS)=  1.000000  1.000000
 Range of M.O.s used for correlation:     1   276
 NBasis=   276 NAE=    24 NBE=    24 NFC=     0 NFV=     0
 NROrb=    276 NOA=    24 NOB=    24 NVA=   252 NVB=   252

 **** Warning!!: The largest alpha MO coefficient is  0.57774287D+02

 Leave Link  801 at Mon Mar 11 19:45:37 2019, MaxMem=   671088640 cpu:               0.3 elap:               0.0
 (Enter /shared/centos7/gaussian/g16/l1101.exe)
 Using compressed storage, NAtomX=    14.
 Will process     15 centers per pass.
 Leave Link 1101 at Mon Mar 11 19:45:38 2019, MaxMem=   671088640 cpu:               6.6 elap:               0.4
 (Enter /shared/centos7/gaussian/g16/l1102.exe)
 Symmetrizing basis deriv contribution to polar:
 IMax=3 JMax=2 DiffMx= 0.00D+00
 Leave Link 1102 at Mon Mar 11 19:45:38 2019, MaxMem=   671088640 cpu:               0.5 elap:               0.1
 (Enter /shared/centos7/gaussian/g16/l1110.exe)
 Forming Gx(P) for the SCF density, NAtomX=    14.
 Integral derivatives from FoFJK, PRISM(SPDF).
 Do as many integral derivatives as possible in FoFJK.
 G2DrvN: MDV=     671087496.
 G2DrvN: will do    15 centers at a time, making    1 passes.
 Calling FoFCou, ICntrl=  3107 FMM=F I1Cent=   0 AccDes= 0.00D+00.
 FoFJK:  IHMeth= 1 ICntrl=    3107 DoSepK=F KAlg= 0 I1Cent=           0 FoldK=F
 IRaf=         0 NMat=       1 IRICut=       1 DoRegI=T DoRafI=F ISym2E= 0 IDoP0=0 IntGTp=1.
 FoFCou: FMM=F IPFlag=           0 FMFlag=      100000 FMFlg1=           0
         NFxFlg=           0 DoJE=F BraDBF=F KetDBF=F FulRan=T
         wScrn=  0.000000 ICntrl=      3107 IOpCl=  0 I1Cent=           0 NGrid=           0
         NMat0=    1 NMatS0=      1 NMatT0=    0 NMatD0=    1 NMtDS0=    0 NMtDT0=    0
 Symmetry not used in FoFCou.
 End of G2Drv F.D. properties file   721 does not exist.
 End of G2Drv F.D. properties file   722 does not exist.
 End of G2Drv F.D. properties file   788 does not exist.
 Leave Link 1110 at Mon Mar 11 19:46:30 2019, MaxMem=   671088640 cpu:            1039.2 elap:              52.0
 (Enter /shared/centos7/gaussian/g16/l1002.exe)
 Minotr:  Closed shell wavefunction.
          IDoAtm=11111111111111
          Direct CPHF calculation.
          Differentiating once with respect to nuclear coordinates.
          Requested convergence is 1.0D-08 RMS, and 1.0D-07 maximum.
          Secondary convergence is 1.0D-12 RMS, and 1.0D-12 maximum.
          NewPWx=T KeepS1=F KeepF1=F KeepIn=T MapXYZ=F SortEE=F KeepMc=T.
         4271 words used for storage of precomputed grid.
 Two-electron integrals replicated using symmetry.
          MDV=     671088640 using IRadAn=       1.
          Solving linear equations simultaneously, MaxMat=     380.
 FoF2E skips out because all densities are zero.
 CalDSu exits because no D1Ps are significant.
 FoFJK:  IHMeth= 1 ICntrl=       0 DoSepK=F KAlg= 0 I1Cent=           0 FoldK=F
 IRaf= 940000000 NMat=      42 IRICut=     105 DoRegI=T DoRafI=T ISym2E= 2 IDoP0=3 IntGTp=3.
 FoFCou: FMM=F IPFlag=           0 FMFlag=      100000 FMFlg1=           0
         NFxFlg=           0 DoJE=F BraDBF=F KetDBF=F FulRan=T
         wScrn=  0.000000 ICntrl=         0 IOpCl=  0 I1Cent=           0 NGrid=           0
         NMat0=   42 NMatS0=     42 NMatT0=    0 NMatD0=   42 NMtDS0=    0 NMtDT0=    0
 Integrals replicated using symmetry in FoFCou.
 Raff kept on since  92.59% of shell-pairs survive, threshold=   0.20 IRatSp=93.
          There are    45 degrees of freedom in the 1st order CPHF.  IDoFFX=6 NUNeed=     0.
     39 vectors produced by pass  0 Test12= 1.34D-14 2.22D-09 XBig12= 7.91D-02 6.87D-02.
 AX will form    39 AO Fock derivatives at one time.
     39 vectors produced by pass  1 Test12= 1.34D-14 2.22D-09 XBig12= 8.13D-03 3.44D-02.
     39 vectors produced by pass  2 Test12= 1.34D-14 2.22D-09 XBig12= 2.21D-04 2.77D-03.
     39 vectors produced by pass  3 Test12= 1.34D-14 2.22D-09 XBig12= 1.85D-06 2.72D-04.
     39 vectors produced by pass  4 Test12= 1.34D-14 2.22D-09 XBig12= 1.63D-08 1.68D-05.
     39 vectors produced by pass  5 Test12= 1.34D-14 2.22D-09 XBig12= 9.28D-11 1.16D-06.
     23 vectors produced by pass  6 Test12= 1.34D-14 2.22D-09 XBig12= 3.50D-13 7.98D-08.
      4 vectors produced by pass  7 Test12= 1.34D-14 2.22D-09 XBig12= 1.46D-15 5.22D-09.
 InvSVY:  IOpt=1 It=  1 EMax= 2.00D-15
 Solved reduced A of dimension   261 with    39 vectors.
 End of Minotr F.D. properties file   721 does not exist.
 End of Minotr F.D. properties file   722 does not exist.
 End of Minotr F.D. properties file   788 does not exist.
 Leave Link 1002 at Mon Mar 11 19:47:43 2019, MaxMem=   671088640 cpu:            1454.3 elap:              72.7
 (Enter /shared/centos7/gaussian/g16/l601.exe)
 Copying SCF densities to generalized density rwf, IOpCl= 0 IROHF=0.

 **********************************************************************

            Population analysis using the SCF density.

 **********************************************************************

 Orbital symmetries:
       Occupied  (A) (A) (A) (A) (A) (A) (A) (A) (A) (A) (A) (A)
                 (A) (A) (A) (A) (A) (A) (A) (A) (A) (A) (A) (A)
       Virtual   (A) (A) (A) (A) (A) (A) (A) (A) (A) (A) (A) (A)
                 (A) (A) (A) (A) (A) (A) (A) (A) (A) (A) (A) (A)
                 (A) (A) (A) (A) (A) (A) (A) (A) (A) (A) (A) (A)
                 (A) (A) (A) (A) (A) (A) (A) (A) (A) (A) (A) (A)
                 (A) (A) (A) (A) (A) (A) (A) (A) (A) (A) (A) (A)
                 (A) (A) (A) (A) (A) (A) (A) (A) (A) (A) (A) (A)
                 (A) (A) (A) (A) (A) (A) (A) (A) (A) (A) (A) (A)
                 (A) (A) (A) (A) (A) (A) (A) (A) (A) (A) (A) (A)
                 (A) (A) (A) (A) (A) (A) (A) (A) (A) (A) (A) (A)
                 (A) (A) (A) (A) (A) (A) (A) (A) (A) (A) (A) (A)
                 (A) (A) (A) (A) (A) (A) (A) (A) (A) (A) (A) (A)
                 (A) (A) (A) (A) (A) (A) (A) (A) (A) (A) (A) (A)
                 (A) (A) (A) (A) (A) (A) (A) (A) (A) (A) (A) (A)
                 (A) (A) (A) (A) (A) (A) (A) (A) (A) (A) (A) (A)
                 (A) (A) (A) (A) (A) (A) (A) (A) (A) (A) (A) (A)
                 (A) (A) (A) (A) (A) (A) (A) (A) (A) (A) (A) (A)
                 (A) (A) (A) (A) (A) (A) (A) (A) (A) (A) (A) (A)
                 (A) (A) (A) (A) (A) (A) (A) (A) (A) (A) (A) (A)
                 (A) (A) (A) (A) (A) (A) (A) (A) (A) (A) (A) (A)
                 (A) (A) (A) (A) (A) (A) (A) (A) (A) (A) (A) (A)
                 (A) (A) (A) (A) (A) (A) (A) (A) (A) (A) (A) (A)
 The electronic state is 1-A.
 Alpha  occ. eigenvalues --  -19.66864 -19.61279 -10.66806 -10.58922 -10.55063
 Alpha  occ. eigenvalues --  -10.52800  -1.23856  -1.14353  -0.89349  -0.82387
 Alpha  occ. eigenvalues --   -0.73252  -0.64607  -0.58973  -0.58005  -0.56227
 Alpha  occ. eigenvalues --   -0.52482  -0.50589  -0.46018  -0.44640  -0.44048
 Alpha  occ. eigenvalues --   -0.42653  -0.41442  -0.37843  -0.35594
 Alpha virt. eigenvalues --    0.01131   0.02431   0.03677   0.03960   0.05005
 Alpha virt. eigenvalues --    0.05090   0.05753   0.06577   0.08384   0.08734
 Alpha virt. eigenvalues --    0.09016   0.09734   0.10542   0.12387   0.14286
 Alpha virt. eigenvalues --    0.15262   0.17996   0.19119   0.20012   0.20068
 Alpha virt. eigenvalues --    0.21602   0.22426   0.23004   0.23324   0.24349
 Alpha virt. eigenvalues --    0.26440   0.27718   0.28357   0.28444   0.29376
 Alpha virt. eigenvalues --    0.30486   0.32095   0.33755   0.34550   0.36719
 Alpha virt. eigenvalues --    0.38665   0.39658   0.41468   0.44371   0.47140
 Alpha virt. eigenvalues --    0.47821   0.49382   0.50520   0.51628   0.53836
 Alpha virt. eigenvalues --    0.54465   0.55500   0.56197   0.56570   0.57699
 Alpha virt. eigenvalues --    0.61099   0.61349   0.62389   0.63663   0.66426
 Alpha virt. eigenvalues --    0.67341   0.68335   0.70968   0.71670   0.75389
 Alpha virt. eigenvalues --    0.76859   0.78700   0.80793   0.84058   0.84607
 Alpha virt. eigenvalues --    0.87199   0.89469   0.90646   0.92160   0.92744
 Alpha virt. eigenvalues --    0.98539   1.01188   1.02647   1.05900   1.06009
 Alpha virt. eigenvalues --    1.09543   1.10682   1.12093   1.12929   1.13628
 Alpha virt. eigenvalues --    1.16473   1.17512   1.17626   1.18613   1.21358
 Alpha virt. eigenvalues --    1.22797   1.23642   1.24525   1.24526   1.24705
 Alpha virt. eigenvalues --    1.28861   1.30112   1.32922   1.34374   1.35143
 Alpha virt. eigenvalues --    1.39603   1.41985   1.43102   1.43795   1.45847
 Alpha virt. eigenvalues --    1.46727   1.47133   1.49427   1.53067   1.55160
 Alpha virt. eigenvalues --    1.58088   1.59775   1.60736   1.63247   1.65487
 Alpha virt. eigenvalues --    1.67533   1.70031   1.72868   1.77335   1.83305
 Alpha virt. eigenvalues --    1.85140   1.93470   2.06418   2.09906   2.12304
 Alpha virt. eigenvalues --    2.27991   2.35032   2.39289   2.40186   2.49282
 Alpha virt. eigenvalues --    2.52655   2.58107   2.59919   2.66152   2.67914
 Alpha virt. eigenvalues --    2.74598   2.75487   2.79974   2.81265   2.83996
 Alpha virt. eigenvalues --    2.84068   2.84572   2.94351   2.96122   2.98581
 Alpha virt. eigenvalues --    3.00951   3.02277   3.03394   3.07775   3.10533
 Alpha virt. eigenvalues --    3.11399   3.13086   3.13791   3.15341   3.18304
 Alpha virt. eigenvalues --    3.19895   3.24957   3.26040   3.26850   3.28919
 Alpha virt. eigenvalues --    3.31999   3.34992   3.40342   3.40652   3.43068
 Alpha virt. eigenvalues --    3.45079   3.49525   3.51629   3.51718   3.52308
 Alpha virt. eigenvalues --    3.52966   3.56317   3.57860   3.61177   3.61304
 Alpha virt. eigenvalues --    3.67458   3.67958   3.72392   3.77529   3.82849
 Alpha virt. eigenvalues --    3.83163   3.86961   3.87392   3.91245   3.94899
 Alpha virt. eigenvalues --    3.95484   3.97410   4.00604   4.01696   4.02026
 Alpha virt. eigenvalues --    4.06040   4.12702   4.13914   4.17716   4.18664
 Alpha virt. eigenvalues --    4.26510   4.26859   4.28828   4.30996   4.31017
 Alpha virt. eigenvalues --    4.32104   4.32633   4.34826   4.36443   4.43096
 Alpha virt. eigenvalues --    4.48241   4.49804   4.51361   4.54089   4.55665
 Alpha virt. eigenvalues --    4.60858   4.72684   4.91931   4.93145   5.08308
 Alpha virt. eigenvalues --    5.11823   5.14951   5.20612   5.20814   5.23681
 Alpha virt. eigenvalues --    5.27478   5.37357   5.40972   5.45126   5.50689
 Alpha virt. eigenvalues --    5.53213   5.56706   5.57334   5.58222   5.65217
 Alpha virt. eigenvalues --    5.67244   5.69380   5.74852   5.80629   6.00291
 Alpha virt. eigenvalues --    6.09630   6.38784   6.45962   6.69865   6.83660
 Alpha virt. eigenvalues --    6.96610   7.06543   7.11743   7.17800   7.19469
 Alpha virt. eigenvalues --    7.25786   7.31779   7.55376   7.67683   7.77757
 Alpha virt. eigenvalues --    7.83484  24.34337  24.43852  24.46702  24.86032
 Alpha virt. eigenvalues --   50.17733  50.31651
          Condensed to atoms (all electrons):
               1          2          3          4          5          6
     1  O    8.214803  -0.084625  -0.218002   0.008870   0.151226   0.216932
     2  O   -0.084625   8.213365   0.001397  -0.029710  -0.035571   0.348857
     3  C   -0.218002   0.001397   5.666628   0.094555  -0.061846  -0.133551
     4  C    0.008870  -0.029710   0.094555   5.176204  -0.013362   0.077215
     5  C    0.151226  -0.035571  -0.061846  -0.013362   4.967609  -0.107665
     6  C    0.216932   0.348857  -0.133551   0.077215  -0.107665   5.443027
     7  H    0.002455   0.000622   0.450856  -0.038743   0.001431  -0.048700
     8  H    0.002455   0.000623   0.450857  -0.038743   0.001431  -0.048700
     9  H    0.000084  -0.001578  -0.024636   0.412767  -0.000210  -0.006992
    10  H   -0.000608   0.001223  -0.078179   0.424389   0.000452   0.038413
    11  H    0.000084  -0.001578  -0.024636   0.412767  -0.000210  -0.006992
    12  H   -0.059014   0.003701   0.002346   0.000790   0.419178   0.017895
    13  H   -0.035578  -0.004396  -0.001458  -0.000948   0.431123   0.001857
    14  H   -0.035578  -0.004396  -0.001458  -0.000948   0.431123   0.001857
               7          8          9         10         11         12
     1  O    0.002455   0.002455   0.000084  -0.000608   0.000084  -0.059014
     2  O    0.000622   0.000623  -0.001578   0.001223  -0.001578   0.003701
     3  C    0.450856   0.450857  -0.024636  -0.078179  -0.024636   0.002346
     4  C   -0.038743  -0.038743   0.412767   0.424389   0.412767   0.000790
     5  C    0.001431   0.001431  -0.000210   0.000452  -0.000210   0.419178
     6  C   -0.048700  -0.048700  -0.006992   0.038413  -0.006992   0.017895
     7  H    0.517206  -0.037196   0.005409  -0.003517  -0.006671   0.000009
     8  H   -0.037196   0.517206  -0.006671  -0.003517   0.005409   0.000009
     9  H    0.005409  -0.006671   0.528099  -0.025290  -0.031323  -0.000002
    10  H   -0.003517  -0.003517  -0.025290   0.538139  -0.025290  -0.000000
    11  H   -0.006671   0.005409  -0.031323  -0.025290   0.528099  -0.000002
    12  H    0.000009   0.000009  -0.000002  -0.000000  -0.000002   0.533251
    13  H    0.000137  -0.000094   0.000012  -0.000001  -0.000006  -0.025077
    14  H   -0.000094   0.000137  -0.000006  -0.000001   0.000012  -0.025077
              13         14
     1  O   -0.035578  -0.035578
     2  O   -0.004396  -0.004396
     3  C   -0.001458  -0.001458
     4  C   -0.000948  -0.000948
     5  C    0.431123   0.431123
     6  C    0.001857   0.001857
     7  H    0.000137  -0.000094
     8  H   -0.000094   0.000137
     9  H    0.000012  -0.000006
    10  H   -0.000001  -0.000001
    11  H   -0.000006   0.000012
    12  H   -0.025077  -0.025077
    13  H    0.533186  -0.037521
    14  H   -0.037521   0.533186
 Mulliken charges:
               1
     1  O   -0.163503
     2  O   -0.407934
     3  C   -0.122874
     4  C   -0.485103
     5  C   -0.184709
     6  C    0.206547
     7  H    0.156796
     8  H    0.156796
     9  H    0.150337
    10  H    0.133789
    11  H    0.150337
    12  H    0.131995
    13  H    0.138764
    14  H    0.138764
 Sum of Mulliken charges =  -0.00000
 Mulliken charges with hydrogens summed into heavy atoms:
               1
     1  O   -0.163503
     2  O   -0.407934
     3  C    0.190718
     4  C   -0.050640
     5  C    0.224813
     6  C    0.206547
 APT charges:
               1
     1  O   -0.038120
     2  O   -0.401935
     3  C   -0.607962
     4  C   -1.314564
     5  C   -1.242519
     6  C    0.318047
     7  H    0.381585
     8  H    0.381585
     9  H    0.327564
    10  H    0.579113
    11  H    0.327564
    12  H    0.576269
    13  H    0.356688
    14  H    0.356688
 Sum of APT charges =  -0.00000
 APT charges with hydrogens summed into heavy atoms:
               1
     1  O   -0.038120
     2  O   -0.401935
     3  C    0.155207
     4  C   -0.080324
     5  C    0.047125
     6  C    0.318047
 Electronic spatial extent (au):  <R**2>=            688.1343
 Charge=             -0.0000 electrons
 Dipole moment (field-independent basis, Debye):
    X=              0.3634    Y=             -1.6693    Z=             -0.0000  Tot=              1.7084
 Quadrupole moment (field-independent basis, Debye-Ang):
   XX=            -30.8399   YY=            -41.3455   ZZ=            -35.8976
   XY=              1.4919   XZ=              0.0000   YZ=              0.0000
 Traceless Quadrupole moment (field-independent basis, Debye-Ang):
   XX=              5.1878   YY=             -5.3179   ZZ=              0.1301
   XY=              1.4919   XZ=              0.0000   YZ=              0.0000
 Octapole moment (field-independent basis, Debye-Ang**2):
  XXX=             19.2490  YYY=             -3.9887  ZZZ=             -0.0000  XYY=              0.1619
  XXY=             -0.2952  XXZ=             -0.0000  XZZ=              1.9761  YZZ=              0.8850
  YYZ=              0.0000  XYZ=             -0.0000
 Hexadecapole moment (field-independent basis, Debye-Ang**3):
 XXXX=           -660.1653 YYYY=           -165.1711 ZZZZ=            -54.7744 XXXY=             -2.8549
 XXXZ=              0.0000 YYYX=             -1.1329 YYYZ=             -0.0000 ZZZX=              0.0000
 ZZZY=             -0.0000 XXYY=           -139.3929 XXZZ=           -125.5855 YYZZ=            -33.0505
 XXYZ=             -0.0000 YYXZ=              0.0000 ZZXY=              0.7654
 N-N= 2.465133791555D+02 E-N=-1.212779277656D+03  KE= 3.065735887955D+02
  Exact polarizability:   0.000   0.000   0.000   0.000   0.000   0.000
 Approx polarizability:  63.729  -1.129  68.878   0.000   0.000  55.052
 No NMR shielding tensors so no spin-rotation constants.
 Leave Link  601 at Mon Mar 11 19:47:43 2019, MaxMem=   671088640 cpu:               4.7 elap:               0.3
 (Enter /shared/centos7/gaussian/g16/l701.exe)
 ... and contract with generalized density number  0.
 Compute integral second derivatives.
 Leave Link  701 at Mon Mar 11 19:47:43 2019, MaxMem=   671088640 cpu:               5.3 elap:               0.3
 (Enter /shared/centos7/gaussian/g16/l702.exe)
 L702 exits ... SP integral derivatives will be done elsewhere.
 Leave Link  702 at Mon Mar 11 19:47:43 2019, MaxMem=   671088640 cpu:               0.3 elap:               0.0
 (Enter /shared/centos7/gaussian/g16/l703.exe)
 Integral derivatives from FoFJK, PRISM(SPDF).
 Compute integral second derivatives, UseDBF=F ICtDFT=           0.
 Calling FoFJK, ICntrl=    100147 FMM=F ISym2X=0 I1Cent= 0 IOpClX= 0 NMat=1 NMatS=1 NMatT=0.
 FoFJK:  IHMeth= 1 ICntrl=  100147 DoSepK=F KAlg= 0 I1Cent=           0 FoldK=F
 IRaf=         0 NMat=       1 IRICut=       1 DoRegI=T DoRafI=F ISym2E= 0 IDoP0=0 IntGTp=1.
 FoFCou: FMM=F IPFlag=           0 FMFlag=      100000 FMFlg1=         800
         NFxFlg=           0 DoJE=F BraDBF=F KetDBF=F FulRan=T
         wScrn=  0.000000 ICntrl=    100147 IOpCl=  0 I1Cent=           0 NGrid=           0
         NMat0=    1 NMatS0=      1 NMatT0=    0 NMatD0=    1 NMtDS0=    0 NMtDT0=    0
 Symmetry not used in FoFCou.
 Leave Link  703 at Mon Mar 11 19:48:59 2019, MaxMem=   671088640 cpu:            1513.3 elap:              75.7
 (Enter /shared/centos7/gaussian/g16/l716.exe)
 Dipole        = 1.42991442D-01-6.56757120D-01-3.00369749D-07
 Polarizability= 0.00000000D+00 0.00000000D+00 0.00000000D+00
                 0.00000000D+00 0.00000000D+00 0.00000000D+00
 ***** Axes restored to original set *****
 -------------------------------------------------------------------
 Center     Atomic                   Forces (Hartrees/Bohr)
 Number     Number              X              Y              Z
 -------------------------------------------------------------------
      1        8           0.000000114    0.000000418   -0.000000011
      2        8          -0.000000361    0.000000183    0.000000000
      3        6           0.000000130   -0.000000271    0.000000016
      4        6          -0.000000052   -0.000000635   -0.000000005
      5        6          -0.000000081    0.000000642    0.000000004
      6        6           0.000000055   -0.000000130    0.000000007
      7        1           0.000000347   -0.000000250    0.000000006
      8        1           0.000000344   -0.000000241   -0.000000016
      9        1          -0.000000226   -0.000000595    0.000000012
     10        1           0.000000125   -0.000000825   -0.000000001
     11        1          -0.000000228   -0.000000599   -0.000000011
     12        1           0.000000195    0.000000879    0.000000000
     13        1          -0.000000180    0.000000713   -0.000000015
     14        1          -0.000000182    0.000000711    0.000000014
 -------------------------------------------------------------------
 Cartesian Forces:  Max     0.000000879 RMS     0.000000347
 FormGI is forming the generalized inverse of G from B-inverse, IUseBI=4.
 Leave Link  716 at Mon Mar 11 19:48:59 2019, MaxMem=   671088640 cpu:               0.5 elap:               0.0
 (Enter /shared/centos7/gaussian/g16/l103.exe)

 GradGradGradGradGradGradGradGradGradGradGradGradGradGradGradGradGradGrad
 Berny optimization.
 Red2BG is reusing G-inverse.
 Internal  Forces:  Max     0.000000108 RMS     0.000000024
 Search for a local minimum.
 Step number   1 out of a maximum of   65 on scan point     1 out of    37
 All quantities printed in internal units (Hartrees-Bohrs-Radians)
 RMS Force = .23803D-07 SwitMx=.10000D-02 MixMth= 2
 Mixed Optimization -- En-DIIS/RFO-DIIS
 Second derivative matrix not updated -- analytic derivatives used.
 ITU=  0
     Eigenvalues ---    0.00094   0.00205   0.02193   0.03462   0.04119
     Eigenvalues ---    0.04458   0.04472   0.05124   0.05234   0.07564
     Eigenvalues ---    0.08501   0.10920   0.12382   0.13318   0.14618
     Eigenvalues ---    0.16266   0.18474   0.18881   0.19924   0.22066
     Eigenvalues ---    0.25279   0.26792   0.31766   0.33692   0.34444
     Eigenvalues ---    0.34456   0.34524   0.34557   0.34817   0.35405
     Eigenvalues ---    0.35521   0.36786   0.39488   0.48905   0.92058
     Eigenvalues --- 1000.000001000.000001000.000001000.000001000.00000
     Eigenvalues --- 1000.000001000.000001000.000001000.000001000.00000
     Eigenvalues --- 1000.000001000.000001000.000001000.000001000.00000
     Eigenvalues --- 1000.000001000.000001000.000001000.000001000.00000
 RFO step:  Lambda= 0.00000000D+00 EMin= 9.37285377D-04
 Linear search not attempted -- first point.
 Iteration  1 RMS(Cart)=  0.00000168 RMS(Int)=  0.00000000
 Iteration  2 RMS(Cart)=  0.00000000 RMS(Int)=  0.00000000
 Iteration  1 RMS(Cart)=  0.00000000 RMS(Int)=  0.00000000
 ITry= 1 IFail=0 DXMaxC= 5.50D-06 DCOld= 1.00D+10 DXMaxT= 3.00D-01 DXLimC= 3.00D+00 Rises=F
 Variable       Old X    -DE/DX   Delta X   Delta X   Delta X     New X
                                 (Linear)    (Quad)   (Total)
    R1        2.69330  -0.00000   0.00000  -0.00000  -0.00000   2.69330
    R2        2.53553  -0.00000   0.00000  -0.00000  -0.00000   2.53553
    R3        2.26751   0.00000   0.00000   0.00000   0.00000   2.26751
    R4        2.87041  -0.00000   0.00000  -0.00000  -0.00000   2.87041
    R5        2.84730   0.00000   0.00000   0.00000   0.00000   2.84730
    R6        2.06245  -0.00000   0.00000  -0.00000  -0.00000   2.06245
    R7        2.06245  -0.00000   0.00000  -0.00000  -0.00000   2.06245
    R8        2.05639   0.00000   0.00000   0.00000   0.00000   2.05639
    R9        2.05656  -0.00000   0.00000  -0.00000  -0.00000   2.05656
   R10        2.05639   0.00000   0.00000   0.00000   0.00000   2.05639
   R11        2.04993   0.00000   0.00000   0.00000   0.00000   2.04993
   R12        2.05648   0.00000   0.00000   0.00000   0.00000   2.05648
   R13        2.05648   0.00000   0.00000   0.00000   0.00000   2.05648
    A1        2.01295  -0.00000   0.00000  -0.00000  -0.00000   2.01295
    A2        1.95939   0.00000   0.00000   0.00000   0.00000   1.95939
    A3        1.95185  -0.00000   0.00000   0.00000   0.00000   1.95185
    A4        1.95185   0.00000   0.00000  -0.00000  -0.00000   1.95185
    A5        1.87412  -0.00000   0.00000   0.00000   0.00000   1.87412
    A6        1.87412  -0.00000   0.00000  -0.00000  -0.00000   1.87412
    A7        1.84637   0.00000   0.00000   0.00000   0.00000   1.84637
    A8        1.93275   0.00000   0.00000   0.00000   0.00000   1.93275
    A9        1.92922  -0.00000   0.00000  -0.00000  -0.00000   1.92922
   A10        1.93275   0.00000   0.00000   0.00000   0.00000   1.93275
   A11        1.89652   0.00000   0.00000   0.00000   0.00000   1.89652
   A12        1.87464  -0.00000   0.00000  -0.00000  -0.00000   1.87464
   A13        1.89652  -0.00000   0.00000  -0.00000  -0.00000   1.89652
   A14        1.85011   0.00000   0.00000   0.00000   0.00000   1.85011
   A15        1.92635   0.00000   0.00000   0.00000   0.00000   1.92635
   A16        1.92635   0.00000   0.00000   0.00000   0.00000   1.92635
   A17        1.93056  -0.00000   0.00000  -0.00000  -0.00000   1.93056
   A18        1.93056  -0.00000   0.00000  -0.00000  -0.00000   1.93056
   A19        1.89987  -0.00000   0.00000  -0.00000  -0.00000   1.89987
   A20        2.14862  -0.00000   0.00000  -0.00000  -0.00000   2.14862
   A21        1.94408   0.00000   0.00000   0.00000   0.00000   1.94408
   A22        2.19049  -0.00000   0.00000  -0.00000  -0.00000   2.19049
    D1       -3.14159  -0.00000   0.00000   0.00000   0.00000  -3.14159
    D2       -1.05044   0.00000   0.00000   0.00000   0.00000  -1.05044
    D3        1.05044  -0.00000   0.00000   0.00000  -0.00000   1.05044
    D4       -0.00000   0.00000   0.00000   0.00000   0.00000   0.00000
    D5        3.14159   0.00000   0.00000   0.00000   0.00000  -3.14159
    D6       -1.03884  -0.00000   0.00000   0.00000   0.00000  -1.03884
    D7        3.14159  -0.00000   0.00000   0.00000   0.00000   3.14159
    D8        1.03884   0.00000   0.00000   0.00000   0.00000   1.03884
    D9        3.13636   0.00000   0.00000   0.00000   0.00000   3.13636
   D10        1.03361   0.00000   0.00000   0.00000   0.00000   1.03361
   D11       -1.06915   0.00000   0.00000   0.00000   0.00000  -1.06915
   D12        1.06915  -0.00000   0.00000   0.00000   0.00000   1.06915
   D13       -1.03361  -0.00000   0.00000   0.00000   0.00000  -1.03361
   D14       -3.13636   0.00000   0.00000   0.00000   0.00000  -3.13636
   D15        3.14159   0.00000   0.00000   0.00000   0.00000  -3.14159
   D16       -0.00000   0.00000   0.00000   0.00000   0.00000   0.00000
   D17       -0.98936   0.00000   0.00000   0.00000   0.00000  -0.98936
   D18        2.15223   0.00000   0.00000   0.00000   0.00000   2.15223
   D19        0.98936   0.00000   0.00000   0.00000   0.00000   0.98936
   D20       -2.15223   0.00000   0.00000   0.00000   0.00000  -2.15223
         Item               Value     Threshold  Converged?
 Maximum Force            0.000000     0.000450     YES
 RMS     Force            0.000000     0.000300     YES
 Maximum Displacement     0.000005     0.001800     YES
 RMS     Displacement     0.000002     0.001200     YES
 Predicted change in Energy=-7.054565D-14
 Optimization completed.
    -- Stationary point found.
                           ----------------------------
                           !   Optimized Parameters   !
                           ! (Angstroms and Degrees)  !
 --------------------------                            --------------------------
 ! Name  Definition              Value          Derivative Info.                !
 --------------------------------------------------------------------------------
 ! R1    R(1,5)                  1.4252         -DE/DX =    0.0                 !
 ! R2    R(1,6)                  1.3417         -DE/DX =    0.0                 !
 ! R3    R(2,6)                  1.1999         -DE/DX =    0.0                 !
 ! R4    R(3,4)                  1.519          -DE/DX =    0.0                 !
 ! R5    R(3,6)                  1.5067         -DE/DX =    0.0                 !
 ! R6    R(3,7)                  1.0914         -DE/DX =    0.0                 !
 ! R7    R(3,8)                  1.0914         -DE/DX =    0.0                 !
 ! R8    R(4,9)                  1.0882         -DE/DX =    0.0                 !
 ! R9    R(4,10)                 1.0883         -DE/DX =    0.0                 !
 ! R10   R(4,11)                 1.0882         -DE/DX =    0.0                 !
 ! R11   R(5,12)                 1.0848         -DE/DX =    0.0                 !
 ! R12   R(5,13)                 1.0882         -DE/DX =    0.0                 !
 ! R13   R(5,14)                 1.0882         -DE/DX =    0.0                 !
 ! A1    A(5,1,6)              115.3337         -DE/DX =    0.0                 !
 ! A2    A(4,3,6)              112.265          -DE/DX =    0.0                 !
 ! A3    A(4,3,7)              111.8328         -DE/DX =    0.0                 !
 ! A4    A(4,3,8)              111.8328         -DE/DX =    0.0                 !
 ! A5    A(6,3,7)              107.379          -DE/DX =    0.0                 !
 ! A6    A(6,3,8)              107.379          -DE/DX =    0.0                 !
 ! A7    A(7,3,8)              105.7892         -DE/DX =    0.0                 !
 ! A8    A(3,4,9)              110.7385         -DE/DX =    0.0                 !
 ! A9    A(3,4,10)             110.5363         -DE/DX =    0.0                 !
 ! A10   A(3,4,11)             110.7385         -DE/DX =    0.0                 !
 ! A11   A(9,4,10)             108.6625         -DE/DX =    0.0                 !
 ! A12   A(9,4,11)             107.409          -DE/DX =    0.0                 !
 ! A13   A(10,4,11)            108.6625         -DE/DX =    0.0                 !
 ! A14   A(1,5,12)             106.0037         -DE/DX =    0.0                 !
 ! A15   A(1,5,13)             110.3716         -DE/DX =    0.0                 !
 ! A16   A(1,5,14)             110.3716         -DE/DX =    0.0                 !
 ! A17   A(12,5,13)            110.6129         -DE/DX =    0.0                 !
 ! A18   A(12,5,14)            110.6129         -DE/DX =    0.0                 !
 ! A19   A(13,5,14)            108.8545         -DE/DX =    0.0                 !
 ! A20   A(1,6,2)              123.1066         -DE/DX =    0.0                 !
 ! A21   A(1,6,3)              111.3877         -DE/DX =    0.0                 !
 ! A22   A(2,6,3)              125.5057         -DE/DX =    0.0                 !
 ! D1    D(6,1,5,12)          -180.0            -DE/DX =    0.0                 !
 ! D2    D(6,1,5,13)           -60.186          -DE/DX =    0.0                 !
 ! D3    D(6,1,5,14)            60.186          -DE/DX =    0.0                 !
 ! D4    D(5,1,6,2)              0.0            -DE/DX =    0.0                 !
 ! D5    D(5,1,6,3)           -180.0            -DE/DX =    0.0                 !
 ! D6    D(6,3,4,9)            -59.521          -DE/DX =    0.0                 !
 ! D7    D(6,3,4,10)           180.0            -DE/DX =    0.0                 !
 ! D8    D(6,3,4,11)            59.521          -DE/DX =    0.0                 !
 ! D9    D(7,3,4,9)            179.7004         -DE/DX =    0.0                 !
 ! D10   D(7,3,4,10)            59.2214         -DE/DX =    0.0                 !
 ! D11   D(7,3,4,11)           -61.2576         -DE/DX =    0.0                 !
 ! D12   D(8,3,4,9)             61.2575         -DE/DX =    0.0                 !
 ! D13   D(8,3,4,10)           -59.2214         -DE/DX =    0.0                 !
 ! D14   D(8,3,4,11)          -179.7004         -DE/DX =    0.0                 !
 ! D15   D(4,3,6,1)           -180.0002         -DE/DX =    0.0                 !
 ! D16   D(4,3,6,2)             -0.0002         -DE/DX =    0.0                 !
 ! D17   D(7,3,6,1)            -56.6864         -DE/DX =    0.0                 !
 ! D18   D(7,3,6,2)            123.3136         -DE/DX =    0.0                 !
 ! D19   D(8,3,6,1)             56.6861         -DE/DX =    0.0                 !
 ! D20   D(8,3,6,2)           -123.3139         -DE/DX =    0.0                 !
 --------------------------------------------------------------------------------
 Lowest energy point so far.  Saving SCF results.
 Iteration  1 RMS(Cart)=  0.02716829 RMS(Int)=  0.01509342
 Iteration  2 RMS(Cart)=  0.00142046 RMS(Int)=  0.01504219
 Iteration  3 RMS(Cart)=  0.00007692 RMS(Int)=  0.01504212
 Iteration  4 RMS(Cart)=  0.00000429 RMS(Int)=  0.01504212
 Iteration  5 RMS(Cart)=  0.00000028 RMS(Int)=  0.01504212
 Iteration  1 RMS(Cart)=  0.01112667 RMS(Int)=  0.00611145
 Iteration  2 RMS(Cart)=  0.00453392 RMS(Int)=  0.00680388
 Iteration  3 RMS(Cart)=  0.00183625 RMS(Int)=  0.00741926
 Iteration  4 RMS(Cart)=  0.00074182 RMS(Int)=  0.00770842
 Iteration  5 RMS(Cart)=  0.00029937 RMS(Int)=  0.00783082
 Iteration  6 RMS(Cart)=  0.00012076 RMS(Int)=  0.00788107
 Iteration  7 RMS(Cart)=  0.00004871 RMS(Int)=  0.00790147
 Iteration  8 RMS(Cart)=  0.00001964 RMS(Int)=  0.00790972
 Iteration  9 RMS(Cart)=  0.00000792 RMS(Int)=  0.00791306
 Iteration 10 RMS(Cart)=  0.00000319 RMS(Int)=  0.00791440
 Iteration 11 RMS(Cart)=  0.00000129 RMS(Int)=  0.00791494
 Iteration 12 RMS(Cart)=  0.00000052 RMS(Int)=  0.00791516
 GradGradGradGradGradGradGradGradGradGradGradGradGradGradGradGradGradGrad

 Leave Link  103 at Mon Mar 11 19:48:59 2019, MaxMem=   671088640 cpu:               0.9 elap:               0.1
 (Enter /shared/centos7/gaussian/g16/l202.exe)
                          Input orientation:                          
 ---------------------------------------------------------------------
 Center     Atomic      Atomic             Coordinates (Angstroms)
 Number     Number       Type             X           Y           Z
 ---------------------------------------------------------------------
      1          8           0        1.141835   -0.685253    0.009735
      2          8           0        0.089339    1.286903   -0.032785
      3          6           0       -1.212276   -0.741434    0.010244
      4          6           0       -2.466713    0.114894   -0.008454
      5          6           0        2.382735    0.015649   -0.004901
      6          6           0        0.045464    0.088043   -0.007139
      7          1           0       -1.169157   -1.416948   -0.845921
      8          1           0       -1.169655   -1.379696    0.894554
      9          1           0       -2.494120    0.777109    0.854637
     10          1           0       -3.356670   -0.511351    0.004687
     11          1           0       -2.493618    0.739573   -0.899105
     12          1           0        3.125128   -0.773860   -0.055278
     13          1           0        2.475732    0.678943   -0.862696
     14          1           0        2.548862    0.526488    0.942423
 ---------------------------------------------------------------------
                    Distance matrix (angstroms):
                    1          2          3          4          5
     1  O    0.000000
     2  O    2.235834   0.000000
     3  C    2.354781   2.410437   0.000000
     4  C    3.696239   2.812046   1.518967   0.000000
     5  C    1.425241   2.622314   3.673896   4.850465   0.000000
     6  C    1.341753   1.199937   1.506733   2.512321   2.338394
     7  H    2.570644   3.091248   1.091420   2.175212   3.921172
     8  H    2.570630   3.091242   1.091421   2.175220   3.921158
     9  H    4.009056   2.778789   2.159189   1.088213   5.010224
    10  H    4.501868   3.887172   2.156709   1.088292   5.763558
    11  H    4.009069   2.778803   2.159197   1.088213   5.010238
    12  H    1.986335   3.669232   4.338020   5.662222   1.084901
    13  H    2.097962   2.598699   4.047332   5.047340   1.088311
    14  H    2.077967   2.752910   4.077100   5.121481   1.089026
                    6          7          8          9         10
     6  C    0.000000
     7  H    2.108046   0.000000
     8  H    2.108037   1.740874   0.000000
     9  H    2.768926   3.075925   2.531326   0.000000
    10  H    3.454552   2.515722   2.515735   1.768202   0.000000
    11  H    2.768940   2.531326   3.075937   1.754144   1.768195
    12  H    3.198363   4.413565   4.440087   5.899949   6.487389
    13  H    2.643359   4.204552   4.540349   5.259115   6.015486
    14  H    2.713099   4.560568   4.178899   5.049969   6.068918
                   11         12         13         14
    11  H    0.000000
    12  H    5.879866   0.000000
    13  H    4.969853   1.784454   0.000000
    14  H    5.372451   1.737353   1.813021   0.000000
 Stoichiometry    C4H8O2
 Framework group  C1[X(C4H8O2)]
 Deg. of freedom    36
 Full point group                 C1      NOp   1
 RotChk:  IX=0 Diff= 3.40D-02
 Largest Abelian subgroup         C1      NOp   1
 Largest concise Abelian subgroup C1      NOp   1
                         Standard orientation:                         
 ---------------------------------------------------------------------
 Center     Atomic      Atomic             Coordinates (Angstroms)
 Number     Number       Type             X           Y           Z
 ---------------------------------------------------------------------
      1          8           0        1.143239   -0.696150   -0.003814
      2          8           0        0.097936    1.280276    0.001877
      3          6           0       -1.211060   -0.743760   -0.001407
      4          6           0       -2.462368    0.117330    0.001923
      5          6           0        2.386684    0.000380   -0.003531
      6          6           0        0.049693    0.081313   -0.000846
      7          1           0       -1.171521   -1.398936   -0.873404
      8          1           0       -1.169645   -1.402963    0.867464
      9          1           0       -2.486234    0.758989    0.880508
     10          1           0       -3.354600   -0.505808    0.001435
     11          1           0       -2.488124    0.763046   -0.873631
     12          1           0        3.126108   -0.790409   -0.073630
     13          1           0        2.481012    0.683485   -0.845487
     14          1           0        2.555903    0.488005    0.955408
 ---------------------------------------------------------------------
 Rotational constants (GHZ):           9.6705220           2.1626877           1.8278202
 Leave Link  202 at Mon Mar 11 19:48:59 2019, MaxMem=   671088640 cpu:               0.2 elap:               0.0
 (Enter /shared/centos7/gaussian/g16/l301.exe)
 Standard basis: 6-311+G(2df,2p) (5D, 7F)
 Ernie: Thresh=  0.10000D-02 Tol=  0.10000D-05 Strict=F.
 There are   306 symmetry adapted cartesian basis functions of A   symmetry.
 There are   276 symmetry adapted basis functions of A   symmetry.
   276 basis functions,   400 primitive gaussians,   306 cartesian basis functions
    24 alpha electrons       24 beta electrons
       nuclear repulsion energy       246.3852904867 Hartrees.
 IExCor= 4336 DFT=T Ex+Corr=M062X ExCW=0 ScaHFX=  0.540000
 ScaDFX=  1.000000  1.000000  1.000000  1.000000 ScalE2=  1.000000  1.000000
 IRadAn=      5 IRanWt=     -1 IRanGd=            0 ICorTp=0 IEmpDi=  4
 NAtoms=   14 NActive=   14 NUniq=   14 SFac= 1.00D+00 NAtFMM=   60 NAOKFM=F Big=F
 Integral buffers will be    131072 words long.
 Raffenetti 2 integral format.
 Two-electron integral symmetry is turned on.
 Leave Link  301 at Mon Mar 11 19:48:59 2019, MaxMem=   671088640 cpu:               1.3 elap:               0.1
 (Enter /shared/centos7/gaussian/g16/l302.exe)
 NPDir=0 NMtPBC=     1 NCelOv=     1 NCel=       1 NClECP=     1 NCelD=      1
         NCelK=      1 NCelE2=     1 NClLst=     1 CellRange=     0.0.
 One-electron integrals computed using PRISM.
 One-electron integral symmetry used in STVInt
 NBasis=   276 RedAO= T EigKep=  2.93D-05  NBF=   276
 NBsUse=   276 1.00D-06 EigRej= -1.00D+00 NBFU=   276
 Precomputing XC quadrature grid using
 IXCGrd= 4 IRadAn=           5 IRanWt=          -1 IRanGd=           0 AccXCQ= 0.00D+00.
 Generated NRdTot=       0 NPtTot=           0 NUsed=           0 NTot=          32
 NSgBfM=   306   306   306   306   306 MxSgAt=    14 MxSgA2=    14.
 Leave Link  302 at Mon Mar 11 19:49:00 2019, MaxMem=   671088640 cpu:               6.6 elap:               0.4
 (Enter /shared/centos7/gaussian/g16/l303.exe)
 DipDrv:  MaxL=1.
 Leave Link  303 at Mon Mar 11 19:49:00 2019, MaxMem=   671088640 cpu:               0.5 elap:               0.0
 (Enter /shared/centos7/gaussian/g16/l401.exe)
 Initial guess from the checkpoint file:  "/scratch/underkoffler.c/gaussian_scratch/Gau-48587.chk"
 B after Tr=    -0.000000    0.000000    0.000000
         Rot=    0.999983   -0.005762   -0.000516    0.000159 Ang=  -0.66 deg.
 Guess basis will be translated and rotated to current coordinates.
 JPrj=2 DoOrth=T DoCkMO=T.
 Generating alternative initial guess.
 ExpMin= 4.38D-02 ExpMax= 8.59D+03 ExpMxC= 1.30D+03 IAcc=2 IRadAn=         4 AccDes= 0.00D+00
 Harris functional with IExCor= 1009 and IRadAn=       4 diagonalized for initial guess.
 HarFok:  IExCor= 1009 AccDes= 0.00D+00 IRadAn=         4 IDoV= 1 UseB2=F ITyADJ=14
 ICtDFT=  3500011 ScaDFX=  1.000000  1.000000  1.000000  1.000000
 FoFCou: FMM=F IPFlag=           0 FMFlag=      100000 FMFlg1=           0
         NFxFlg=           0 DoJE=T BraDBF=F KetDBF=T FulRan=T
         wScrn=  0.000000 ICntrl=       500 IOpCl=  0 I1Cent=   200000004 NGrid=           0
         NMat0=    1 NMatS0=      1 NMatT0=    0 NMatD0=    1 NMtDS0=    0 NMtDT0=    0
 Petite list used in FoFCou.
 Harris En= -307.573101797049    
 Leave Link  401 at Mon Mar 11 19:49:00 2019, MaxMem=   671088640 cpu:              12.4 elap:               0.7
 (Enter /shared/centos7/gaussian/g16/l502.exe)
 Integral symmetry usage will be decided dynamically.
 Closed shell SCF:
 Using DIIS extrapolation, IDIIS=  1040.
 NGot=   671088640 LenX=   670892442 LenY=   670798365
 Requested convergence on RMS density matrix=1.00D-08 within 128 cycles.
 Requested convergence on MAX density matrix=1.00D-06.
 Requested convergence on             energy=1.00D-06.
 No special actions if energy rises.
 Fock matrices will be formed incrementally for  20 cycles.

 Cycle   1  Pass 1  IDiag  1:
 FoFJK:  IHMeth= 1 ICntrl=       0 DoSepK=F KAlg= 0 I1Cent=           0 FoldK=F
 IRaf= 960000000 NMat=       1 IRICut=       1 DoRegI=T DoRafI=F ISym2E= 0 IDoP0=0 IntGTp=1.
 FoFCou: FMM=F IPFlag=           0 FMFlag=      100000 FMFlg1=           0
         NFxFlg=           0 DoJE=F BraDBF=F KetDBF=F FulRan=T
         wScrn=  0.000000 ICntrl=         0 IOpCl=  0 I1Cent=           0 NGrid=           0
         NMat0=    1 NMatS0=      1 NMatT0=    0 NMatD0=    1 NMtDS0=    0 NMtDT0=    0
 Symmetry not used in FoFCou.
 E= -307.672963147055    
 DIIS: error= 2.74D-03 at cycle   1 NSaved=   1.
 NSaved= 1 IEnMin= 1 EnMin= -307.672963147055     IErMin= 1 ErrMin= 2.74D-03
 ErrMax= 2.74D-03  0.00D+00 EMaxC= 1.00D-01 BMatC= 1.75D-03 BMatP= 1.75D-03
 IDIUse=3 WtCom= 9.73D-01 WtEn= 2.74D-02
 Coeff-Com:  0.100D+01
 Coeff-En:   0.100D+01
 Coeff:      0.100D+01
 Gap=     0.604 Goal=   None    Shift=    0.000
 GapD=    0.604 DampG=2.000 DampE=1.000 DampFc=2.0000 IDamp=-1.
 RMSDP=1.50D-04 MaxDP=5.05D-03              OVMax= 1.13D-02

 Cycle   2  Pass 1  IDiag  1:
 RMSU=  1.50D-04    CP:  9.99D-01
 E= -307.675176201745     Delta-E=       -0.002213054689 Rises=F Damp=F
 DIIS: error= 5.72D-04 at cycle   2 NSaved=   2.
 NSaved= 2 IEnMin= 2 EnMin= -307.675176201745     IErMin= 2 ErrMin= 5.72D-04
 ErrMax= 5.72D-04  0.00D+00 EMaxC= 1.00D-01 BMatC= 4.36D-05 BMatP= 1.75D-03
 IDIUse=3 WtCom= 9.94D-01 WtEn= 5.72D-03
 Coeff-Com: -0.123D+00 0.112D+01
 Coeff-En:   0.000D+00 0.100D+01
 Coeff:     -0.122D+00 0.112D+01
 Gap=     0.367 Goal=   None    Shift=    0.000
 RMSDP=3.51D-05 MaxDP=1.47D-03 DE=-2.21D-03 OVMax= 3.02D-03

 Cycle   3  Pass 1  IDiag  1:
 RMSU=  2.44D-05    CP:  9.99D-01  1.17D+00
 E= -307.675271699444     Delta-E=       -0.000095497700 Rises=F Damp=F
 DIIS: error= 1.02D-04 at cycle   3 NSaved=   3.
 NSaved= 3 IEnMin= 3 EnMin= -307.675271699444     IErMin= 3 ErrMin= 1.02D-04
 ErrMax= 1.02D-04  0.00D+00 EMaxC= 1.00D-01 BMatC= 3.80D-06 BMatP= 4.36D-05
 IDIUse=3 WtCom= 9.99D-01 WtEn= 1.02D-03
 Coeff-Com: -0.318D-01 0.186D+00 0.845D+00
 Coeff-En:   0.000D+00 0.000D+00 0.100D+01
 Coeff:     -0.318D-01 0.186D+00 0.846D+00
 Gap=     0.366 Goal=   None    Shift=    0.000
 RMSDP=8.93D-06 MaxDP=4.20D-04 DE=-9.55D-05 OVMax= 7.59D-04

 Cycle   4  Pass 1  IDiag  1:
 RMSU=  8.41D-06    CP:  9.99D-01  1.19D+00  1.00D+00
 E= -307.675274694858     Delta-E=       -0.000002995413 Rises=F Damp=F
 DIIS: error= 9.82D-05 at cycle   4 NSaved=   4.
 NSaved= 4 IEnMin= 4 EnMin= -307.675274694858     IErMin= 4 ErrMin= 9.82D-05
 ErrMax= 9.82D-05  0.00D+00 EMaxC= 1.00D-01 BMatC= 2.24D-06 BMatP= 3.80D-06
 IDIUse=1 WtCom= 1.00D+00 WtEn= 0.00D+00
 Coeff-Com: -0.161D-02-0.435D-01 0.440D+00 0.605D+00
 Coeff:     -0.161D-02-0.435D-01 0.440D+00 0.605D+00
 Gap=     0.367 Goal=   None    Shift=    0.000
 RMSDP=4.24D-06 MaxDP=2.45D-04 DE=-3.00D-06 OVMax= 3.62D-04

 Cycle   5  Pass 1  IDiag  1:
 RMSU=  2.76D-06    CP:  9.99D-01  1.19D+00  1.10D+00  7.47D-01
 E= -307.675276240153     Delta-E=       -0.000001545295 Rises=F Damp=F
 DIIS: error= 2.45D-05 at cycle   5 NSaved=   5.
 NSaved= 5 IEnMin= 5 EnMin= -307.675276240153     IErMin= 5 ErrMin= 2.45D-05
 ErrMax= 2.45D-05  0.00D+00 EMaxC= 1.00D-01 BMatC= 2.09D-07 BMatP= 2.24D-06
 IDIUse=1 WtCom= 1.00D+00 WtEn= 0.00D+00
 Coeff-Com:  0.270D-02-0.438D-01 0.130D+00 0.299D+00 0.612D+00
 Coeff:      0.270D-02-0.438D-01 0.130D+00 0.299D+00 0.612D+00
 Gap=     0.367 Goal=   None    Shift=    0.000
 RMSDP=1.33D-06 MaxDP=5.17D-05 DE=-1.55D-06 OVMax= 1.27D-04

 Cycle   6  Pass 1  IDiag  1:
 RMSU=  8.23D-07    CP:  9.99D-01  1.19D+00  1.12D+00  8.07D-01  7.52D-01
 E= -307.675276395798     Delta-E=       -0.000000155645 Rises=F Damp=F
 DIIS: error= 4.89D-06 at cycle   6 NSaved=   6.
 NSaved= 6 IEnMin= 6 EnMin= -307.675276395798     IErMin= 6 ErrMin= 4.89D-06
 ErrMax= 4.89D-06  0.00D+00 EMaxC= 1.00D-01 BMatC= 1.36D-08 BMatP= 2.09D-07
 IDIUse=1 WtCom= 1.00D+00 WtEn= 0.00D+00
 Coeff-Com:  0.131D-02-0.159D-01 0.219D-01 0.794D-01 0.264D+00 0.649D+00
 Coeff:      0.131D-02-0.159D-01 0.219D-01 0.794D-01 0.264D+00 0.649D+00
 Gap=     0.367 Goal=   None    Shift=    0.000
 RMSDP=3.75D-07 MaxDP=1.84D-05 DE=-1.56D-07 OVMax= 3.17D-05

 Cycle   7  Pass 1  IDiag  1:
 RMSU=  2.96D-07    CP:  9.99D-01  1.19D+00  1.13D+00  8.13D-01  7.99D-01
                    CP:  9.20D-01
 E= -307.675276406571     Delta-E=       -0.000000010773 Rises=F Damp=F
 DIIS: error= 2.15D-06 at cycle   7 NSaved=   7.
 NSaved= 7 IEnMin= 7 EnMin= -307.675276406571     IErMin= 7 ErrMin= 2.15D-06
 ErrMax= 2.15D-06  0.00D+00 EMaxC= 1.00D-01 BMatC= 1.41D-09 BMatP= 1.36D-08
 IDIUse=1 WtCom= 1.00D+00 WtEn= 0.00D+00
 Coeff-Com:  0.204D-03-0.122D-02-0.584D-02-0.395D-02 0.283D-01 0.253D+00
 Coeff-Com:  0.730D+00
 Coeff:      0.204D-03-0.122D-02-0.584D-02-0.395D-02 0.283D-01 0.253D+00
 Coeff:      0.730D+00
 Gap=     0.367 Goal=   None    Shift=    0.000
 RMSDP=1.30D-07 MaxDP=6.47D-06 DE=-1.08D-08 OVMax= 1.29D-05

 Cycle   8  Pass 1  IDiag  1:
 RMSU=  9.72D-08    CP:  9.99D-01  1.19D+00  1.13D+00  8.18D-01  8.13D-01
                    CP:  9.80D-01  9.40D-01
 E= -307.675276407881     Delta-E=       -0.000000001311 Rises=F Damp=F
 DIIS: error= 6.25D-07 at cycle   8 NSaved=   8.
 NSaved= 8 IEnMin= 8 EnMin= -307.675276407881     IErMin= 8 ErrMin= 6.25D-07
 ErrMax= 6.25D-07  0.00D+00 EMaxC= 1.00D-01 BMatC= 1.88D-10 BMatP= 1.41D-09
 IDIUse=1 WtCom= 1.00D+00 WtEn= 0.00D+00
 Coeff-Com: -0.126D-03 0.202D-02-0.534D-02-0.137D-01-0.326D-01-0.139D-01
 Coeff-Com:  0.277D+00 0.787D+00
 Coeff:     -0.126D-03 0.202D-02-0.534D-02-0.137D-01-0.326D-01-0.139D-01
 Coeff:      0.277D+00 0.787D+00
 Gap=     0.367 Goal=   None    Shift=    0.000
 RMSDP=5.46D-08 MaxDP=2.41D-06 DE=-1.31D-09 OVMax= 6.30D-06

 Cycle   9  Pass 1  IDiag  1:
 RMSU=  3.58D-08    CP:  9.99D-01  1.19D+00  1.13D+00  8.18D-01  8.16D-01
                    CP:  1.01D+00  1.02D+00  1.03D+00
 E= -307.675276408105     Delta-E=       -0.000000000224 Rises=F Damp=F
 DIIS: error= 1.27D-07 at cycle   9 NSaved=   9.
 NSaved= 9 IEnMin= 9 EnMin= -307.675276408105     IErMin= 9 ErrMin= 1.27D-07
 ErrMax= 1.27D-07  0.00D+00 EMaxC= 1.00D-01 BMatC= 6.44D-12 BMatP= 1.88D-10
 IDIUse=1 WtCom= 1.00D+00 WtEn= 0.00D+00
 Coeff-Com: -0.296D-04 0.342D-03-0.136D-03-0.155D-02-0.661D-02-0.234D-01
[...]
           A17        110.42818 110.60910
           A18        111.06112 110.61108
           A19        108.60175 108.86086
           A20        123.18205 123.11424
           A21        111.33907 111.38255
           A22        125.47885 125.50321
           D1         170.67468-180.00128
           D2         -69.78382 -60.18982
           D3          50.18616  60.18609
           D4           0.92628  -0.03979
           D5        -179.13616-180.03527
           D6         -59.51451 -59.51919
           D7        -179.99183-179.99817
           D8          59.52969  59.52294
           D9         179.70792 179.70197
           D10         59.23059  59.22298
           D11        -61.24788 -61.25591
           D12         61.26554  61.25916
           D13        -59.21179 -59.21983
           D14       -179.69026-179.69872
           D15       -179.72169 179.99470
           D16          0.21414  -0.00066
           D17        -56.40392 -56.69146
           D18        123.53191 123.31318
           D19         56.96622  56.68091
           D20       -123.09795-123.31445
 Largest change from initial coordinates is atom   13       0.001 Angstoms.
 GradGradGradGradGradGradGradGradGradGradGradGradGradGradGradGradGradGrad

 Leave Link  103 at Mon Mar 11 20:43:39 2019, MaxMem=   671088640 cpu:               0.5 elap:               0.0
 (Enter /shared/centos7/gaussian/g16/l202.exe)
                          Input orientation:                          
 ---------------------------------------------------------------------
 Center     Atomic      Atomic             Coordinates (Angstroms)
 Number     Number       Type             X           Y           Z
 ---------------------------------------------------------------------
      1          8           0        1.076383   -0.131554    0.736301
      2          8           0        0.217827    0.288945   -1.284906
      3          6           0       -1.257156   -0.351592    0.510664
      4          6           0       -2.418692   -0.238532   -0.461591
      5          6           0        2.368797    0.157997    0.209852
      6          6           0        0.063587   -0.026356   -0.137484
      7          1           0       -1.175683   -1.355631    0.930697
      8          1           0       -1.375346    0.318581    1.363927
      9          1           0       -2.486612    0.769759   -0.865206
     10          1           0       -3.356864   -0.478849    0.034843
     11          1           0       -2.285455   -0.917230   -1.301701
     12          1           0        3.063171    0.028022    1.033086
     13          1           0        2.607708   -0.523713   -0.604034
     14          1           0        2.405221    1.179212   -0.164443
 ---------------------------------------------------------------------
                    Distance matrix (angstroms):
                    1          2          3          4          5
     1  O    0.000000
     2  O    2.235892   0.000000
     3  C    2.354727   2.410381   0.000000
     4  C    3.696206   2.811995   1.518956   0.000000
     5  C    1.425244   2.622616   3.673922   4.850579   0.000000
     6  C    1.341761   1.199909   1.506731   2.512324   2.338508
     7  H    2.570595   3.091181   1.091403   2.175189   3.920973
     8  H    2.570509   3.091180   1.091402   2.175192   3.921260
     9  H    4.009005   2.778726   2.159168   1.088195   5.010488
    10  H    4.501815   3.887115   2.156704   1.088286   5.763627
    11  H    4.009077   2.778770   2.159169   1.088195   5.010286
    12  H    2.015161   3.679286   4.368325   5.688228   1.084787
    13  H    2.072496   2.614485   4.026085   5.036499   1.088217
    14  H    2.072500   2.613944   4.026430   5.036708   1.088258
                    6          7          8          9         10
     6  C    0.000000
     7  H    2.108026   0.000000
     8  H    2.108019   1.740844   0.000000
     9  H    2.768915   3.075887   2.531305   0.000000
    10  H    3.454553   2.515721   2.515705   1.768176   0.000000
    11  H    2.768945   2.531283   3.075890   1.754116   1.768175
    12  H    3.220356   4.460142   4.460305   5.912172   6.516921
    13  H    2.633930   4.166718   4.521842   5.262449   5.998858
    14  H    2.633888   4.521906   4.167647   4.958704   5.999208
                   11         12         13         14
    11  H    0.000000
    12  H    5.912067   0.000000
    13  H    4.958290   1.786622   0.000000
    14  H    5.262211   1.786677   1.770366   0.000000
 Stoichiometry    C4H8O2
 Framework group  C1[X(C4H8O2)]
 Deg. of freedom    36
 Full point group                 C1      NOp   1
 RotChk:  IX=2 Diff= 1.90D-15
 Largest Abelian subgroup         C1      NOp   1
 Largest concise Abelian subgroup C1      NOp   1
                         Standard orientation:                         
 ---------------------------------------------------------------------
 Center     Atomic      Atomic             Coordinates (Angstroms)
 Number     Number       Type             X           Y           Z
 ---------------------------------------------------------------------
      1          8           0        1.143261   -0.700643    0.000337
      2          8           0        0.101695    1.277829    0.000161
      3          6           0       -1.211072   -0.743700   -0.000038
      4          6           0       -2.460753    0.119738   -0.000147
      5          6           0        2.388177   -0.006739   -0.000288
      6          6           0        0.051241    0.078982    0.000127
      7          1           0       -1.171743   -1.400929   -0.870477
      8          1           0       -1.171925   -1.400981    0.870368
      9          1           0       -2.484431    0.763456    0.876913
     10          1           0       -3.354157   -0.501708   -0.000233
     11          1           0       -2.484273    0.763468   -0.877203
     12          1           0        3.157162   -0.771870    0.000001
     13          1           0        2.471939    0.620181   -0.885823
     14          1           0        2.472226    0.621207    0.884543
 ---------------------------------------------------------------------
 Rotational constants (GHZ):           9.6751204           2.1660298           1.8294836
 Leave Link  202 at Mon Mar 11 20:43:39 2019, MaxMem=   671088640 cpu:               0.1 elap:               0.0
 (Enter /shared/centos7/gaussian/g16/l601.exe)
 Copying SCF densities to generalized density rwf, IOpCl= 0 IROHF=0.

 **********************************************************************

            Population analysis using the SCF density.

 **********************************************************************

 Orbital symmetries:
       Occupied  (A) (A) (A) (A) (A) (A) (A) (A) (A) (A) (A) (A)
                 (A) (A) (A) (A) (A) (A) (A) (A) (A) (A) (A) (A)
       Virtual   (A) (A) (A) (A) (A) (A) (A) (A) (A) (A) (A) (A)
                 (A) (A) (A) (A) (A) (A) (A) (A) (A) (A) (A) (A)
                 (A) (A) (A) (A) (A) (A) (A) (A) (A) (A) (A) (A)
                 (A) (A) (A) (A) (A) (A) (A) (A) (A) (A) (A) (A)
                 (A) (A) (A) (A) (A) (A) (A) (A) (A) (A) (A) (A)
                 (A) (A) (A) (A) (A) (A) (A) (A) (A) (A) (A) (A)
                 (A) (A) (A) (A) (A) (A) (A) (A) (A) (A) (A) (A)
                 (A) (A) (A) (A) (A) (A) (A) (A) (A) (A) (A) (A)
                 (A) (A) (A) (A) (A) (A) (A) (A) (A) (A) (A) (A)
                 (A) (A) (A) (A) (A) (A) (A) (A) (A) (A) (A) (A)
                 (A) (A) (A) (A) (A) (A) (A) (A) (A) (A) (A) (A)
                 (A) (A) (A) (A) (A) (A) (A) (A) (A) (A) (A) (A)
                 (A) (A) (A) (A) (A) (A) (A) (A) (A) (A) (A) (A)
                 (A) (A) (A) (A) (A) (A) (A) (A) (A) (A) (A) (A)
                 (A) (A) (A) (A) (A) (A) (A) (A) (A) (A) (A) (A)
                 (A) (A) (A) (A) (A) (A) (A) (A) (A) (A) (A) (A)
                 (A) (A) (A) (A) (A) (A) (A) (A) (A) (A) (A) (A)
                 (A) (A) (A) (A) (A) (A) (A) (A) (A) (A) (A) (A)
                 (A) (A) (A) (A) (A) (A) (A) (A) (A) (A) (A) (A)
                 (A) (A) (A) (A) (A) (A) (A) (A) (A) (A) (A) (A)
                 (A) (A) (A) (A) (A) (A) (A) (A) (A) (A) (A) (A)
 The electronic state is 1-A.
 Alpha  occ. eigenvalues --  -19.66864 -19.61280 -10.66806 -10.58923 -10.55062
 Alpha  occ. eigenvalues --  -10.52800  -1.23854  -1.14354  -0.89349  -0.82387
 Alpha  occ. eigenvalues --   -0.73252  -0.64606  -0.58972  -0.58005  -0.56227
 Alpha  occ. eigenvalues --   -0.52482  -0.50590  -0.46019  -0.44640  -0.44048
 Alpha  occ. eigenvalues --   -0.42652  -0.41442  -0.37844  -0.35594
 Alpha virt. eigenvalues --    0.01131   0.02431   0.03677   0.03960   0.05005
 Alpha virt. eigenvalues --    0.05090   0.05753   0.06577   0.08384   0.08734
 Alpha virt. eigenvalues --    0.09016   0.09734   0.10541   0.12387   0.14286
 Alpha virt. eigenvalues --    0.15261   0.17996   0.19118   0.20012   0.20067
 Alpha virt. eigenvalues --    0.21602   0.22426   0.23003   0.23325   0.24349
 Alpha virt. eigenvalues --    0.26440   0.27718   0.28357   0.28445   0.29376
 Alpha virt. eigenvalues --    0.30486   0.32095   0.33754   0.34550   0.36719
 Alpha virt. eigenvalues --    0.38664   0.39659   0.41468   0.44371   0.47140
 Alpha virt. eigenvalues --    0.47822   0.49380   0.50519   0.51627   0.53836
 Alpha virt. eigenvalues --    0.54465   0.55500   0.56197   0.56570   0.57699
 Alpha virt. eigenvalues --    0.61099   0.61348   0.62390   0.63664   0.66425
 Alpha virt. eigenvalues --    0.67341   0.68335   0.70967   0.71671   0.75388
 Alpha virt. eigenvalues --    0.76859   0.78700   0.80791   0.84058   0.84607
 Alpha virt. eigenvalues --    0.87198   0.89469   0.90644   0.92161   0.92744
 Alpha virt. eigenvalues --    0.98541   1.01188   1.02647   1.05901   1.06008
 Alpha virt. eigenvalues --    1.09542   1.10681   1.12094   1.12929   1.13629
 Alpha virt. eigenvalues --    1.16473   1.17510   1.17626   1.18613   1.21360
 Alpha virt. eigenvalues --    1.22798   1.23641   1.24521   1.24529   1.24706
 Alpha virt. eigenvalues --    1.28862   1.30112   1.32923   1.34374   1.35144
 Alpha virt. eigenvalues --    1.39602   1.41983   1.43103   1.43792   1.45847
 Alpha virt. eigenvalues --    1.46727   1.47132   1.49428   1.53067   1.55160
 Alpha virt. eigenvalues --    1.58087   1.59773   1.60736   1.63247   1.65483
 Alpha virt. eigenvalues --    1.67534   1.70029   1.72860   1.77337   1.83307
 Alpha virt. eigenvalues --    1.85132   1.93469   2.06417   2.09906   2.12306
 Alpha virt. eigenvalues --    2.27991   2.35028   2.39289   2.40187   2.49283
 Alpha virt. eigenvalues --    2.52654   2.58104   2.59915   2.66152   2.67915
 Alpha virt. eigenvalues --    2.74599   2.75480   2.79973   2.81267   2.83997
 Alpha virt. eigenvalues --    2.84068   2.84572   2.94348   2.96121   2.98581
 Alpha virt. eigenvalues --    3.00952   3.02277   3.03393   3.07774   3.10532
 Alpha virt. eigenvalues --    3.11398   3.13085   3.13792   3.15339   3.18305
 Alpha virt. eigenvalues --    3.19895   3.24955   3.26040   3.26848   3.28919
 Alpha virt. eigenvalues --    3.31999   3.34991   3.40342   3.40652   3.43069
 Alpha virt. eigenvalues --    3.45078   3.49524   3.51627   3.51718   3.52305
 Alpha virt. eigenvalues --    3.52966   3.56319   3.57861   3.61178   3.61304
 Alpha virt. eigenvalues --    3.67457   3.67960   3.72389   3.77533   3.82849
 Alpha virt. eigenvalues --    3.83163   3.86961   3.87391   3.91242   3.94897
 Alpha virt. eigenvalues --    3.95485   3.97406   4.00603   4.01696   4.02026
 Alpha virt. eigenvalues --    4.06039   4.12703   4.13912   4.17713   4.18664
 Alpha virt. eigenvalues --    4.26511   4.26859   4.28827   4.30996   4.31022
 Alpha virt. eigenvalues --    4.32102   4.32634   4.34828   4.36444   4.43094
 Alpha virt. eigenvalues --    4.48241   4.49802   4.51361   4.54089   4.55665
 Alpha virt. eigenvalues --    4.60859   4.72684   4.91929   4.93144   5.08307
 Alpha virt. eigenvalues --    5.11821   5.14951   5.20611   5.20813   5.23682
 Alpha virt. eigenvalues --    5.27476   5.37358   5.40972   5.45121   5.50691
 Alpha virt. eigenvalues --    5.53214   5.56697   5.57327   5.58222   5.65214
 Alpha virt. eigenvalues --    5.67244   5.69382   5.74851   5.80617   6.00293
 Alpha virt. eigenvalues --    6.09629   6.38789   6.45959   6.69864   6.83659
 Alpha virt. eigenvalues --    6.96602   7.06543   7.11740   7.17794   7.19468
 Alpha virt. eigenvalues --    7.25795   7.31781   7.55376   7.67683   7.77755
 Alpha virt. eigenvalues --    7.83485  24.34337  24.43849  24.46702  24.86027
 Alpha virt. eigenvalues --   50.17730  50.31650
          Condensed to atoms (all electrons):
               1          2          3          4          5          6
     1  O    8.214813  -0.084607  -0.217992   0.008867   0.151205   0.216914
     2  O   -0.084607   8.213296   0.001396  -0.029731  -0.035534   0.348870
     3  C   -0.217992   0.001396   5.666544   0.094512  -0.061825  -0.133495
     4  C    0.008867  -0.029731   0.094512   5.176254  -0.013358   0.077241
     5  C    0.151205  -0.035534  -0.061825  -0.013358   4.967552  -0.107642
     6  C    0.216914   0.348870  -0.133495   0.077241  -0.107642   5.442960
     7  H    0.002452   0.000622   0.450848  -0.038741   0.001435  -0.048696
     8  H    0.002454   0.000623   0.450886  -0.038749   0.001426  -0.048712
     9  H    0.000084  -0.001579  -0.024657   0.412767  -0.000209  -0.006973
    10  H   -0.000608   0.001223  -0.078166   0.424388   0.000452   0.038400
    11  H    0.000084  -0.001577  -0.024626   0.412764  -0.000210  -0.006999
    12  H   -0.058997   0.003697   0.002347   0.000790   0.419173   0.017888
    13  H   -0.035593  -0.004381  -0.001452  -0.000947   0.431119   0.001859
    14  H   -0.035587  -0.004396  -0.001467  -0.000948   0.431134   0.001860
               7          8          9         10         11         12
     1  O    0.002452   0.002454   0.000084  -0.000608   0.000084  -0.058997
     2  O    0.000622   0.000623  -0.001579   0.001223  -0.001577   0.003697
     3  C    0.450848   0.450886  -0.024657  -0.078166  -0.024626   0.002347
     4  C   -0.038741  -0.038749   0.412767   0.424388   0.412764   0.000790
     5  C    0.001435   0.001426  -0.000209   0.000452  -0.000210   0.419173
     6  C   -0.048696  -0.048712  -0.006973   0.038400  -0.006999   0.017888
     7  H    0.517213  -0.037198   0.005410  -0.003517  -0.006672   0.000009
     8  H   -0.037198   0.517200  -0.006671  -0.003517   0.005409   0.000009
     9  H    0.005410  -0.006671   0.528100  -0.025291  -0.031324  -0.000002
    10  H   -0.003517  -0.003517  -0.025291   0.538143  -0.025290  -0.000000
    11  H   -0.006672   0.005409  -0.031324  -0.025290   0.528102  -0.000002
    12  H    0.000009   0.000009  -0.000002  -0.000000  -0.000002   0.533257
    13  H    0.000137  -0.000094   0.000012  -0.000001  -0.000006  -0.025081
    14  H   -0.000094   0.000137  -0.000006  -0.000001   0.000012  -0.025080
              13         14
     1  O   -0.035593  -0.035587
     2  O   -0.004381  -0.004396
     3  C   -0.001452  -0.001467
     4  C   -0.000947  -0.000948
     5  C    0.431119   0.431134
     6  C    0.001859   0.001860
     7  H    0.000137  -0.000094
     8  H   -0.000094   0.000137
     9  H    0.000012  -0.000006
    10  H   -0.000001  -0.000001
    11  H   -0.000006   0.000012
    12  H   -0.025081  -0.025080
    13  H    0.533182  -0.037512
    14  H   -0.037512   0.533184
 Mulliken charges:
               1
     1  O   -0.163489
     2  O   -0.407922
     3  C   -0.122853
     4  C   -0.485108
     5  C   -0.184717
     6  C    0.206527
     7  H    0.156793
     8  H    0.156797
     9  H    0.150336
    10  H    0.133786
    11  H    0.150335
    12  H    0.131992
    13  H    0.138758
    14  H    0.138764
 Sum of Mulliken charges =  -0.00000
 Mulliken charges with hydrogens summed into heavy atoms:
               1
     1  O   -0.163489
     2  O   -0.407922
     3  C    0.190737
     4  C   -0.050651
     5  C    0.224798
     6  C    0.206527
 Electronic spatial extent (au):  <R**2>=            688.1527
 Charge=             -0.0000 electrons
 Dipole moment (field-independent basis, Debye):
    X=              0.3642    Y=             -1.6695    Z=             -0.0010  Tot=              1.7088
 Quadrupole moment (field-independent basis, Debye-Ang):
   XX=            -30.8391   YY=            -41.3460   ZZ=            -35.8975
   XY=              1.4915   XZ=             -0.0015   YZ=              0.0002
 Traceless Quadrupole moment (field-independent basis, Debye-Ang):
   XX=              5.1884   YY=             -5.3185   ZZ=              0.1301
   XY=              1.4915   XZ=             -0.0015   YZ=              0.0002
 Octapole moment (field-independent basis, Debye-Ang**2):
  XXX=             19.2544  YYY=             -3.9897  ZZZ=              0.0000  XYY=              0.1622
  XXY=             -0.2962  XXZ=             -0.0015  XZZ=              1.9767  YZZ=              0.8854
  YYZ=              0.0005  XYZ=              0.0007
 Hexadecapole moment (field-independent basis, Debye-Ang**3):
 XXXX=           -660.1755 YYYY=           -165.1764 ZZZZ=            -54.7744 XXXY=             -2.8596
 XXXZ=             -0.0028 YYYX=             -1.1349 YYYZ=              0.0003 ZZZX=             -0.0032
 ZZZY=             -0.0010 XXYY=           -139.3975 XXZZ=           -125.5875 YYZZ=            -33.0516
 XXYZ=              0.0007 YYXZ=              0.0015 ZZXY=              0.7649
 N-N= 2.465106418911D+02 E-N=-1.212773745078D+03  KE= 3.065735022760D+02
 No NMR shielding tensors so no spin-rotation constants.
 Leave Link  601 at Mon Mar 11 20:43:40 2019, MaxMem=   671088640 cpu:               4.4 elap:               0.3
 (Enter /shared/centos7/gaussian/g16/l9999.exe)
 1\1\GINC-C0299\Scan\RM062X\6-311+G(2df,2p)\C4H8O2\UNDERKOFFLER.C\11-Ma
 r-2019\0\\#p m062x/6-311+g(2df,2p) Opt=(CalcFC,ModRedun)\\Gaussian Inp
 ut Prepared from Scan Object\\0,1\O,1.0763834881,-0.1315540458,0.73630
 05522\O,0.2178273931,0.2889448808,-1.2849059077\C,-1.2571564042,-0.351
 5921641,0.510664189\C,-2.4186919798,-0.2385315568,-0.461590727\C,2.368
 7966371,0.1579967515,0.2098516746\C,0.0635870709,-0.0263555691,-0.1374
 838881\H,-1.1756833583,-1.3556309422,0.9306974166\H,-1.3753460802,0.31
 8581135,1.3639269269\H,-2.4866115217,0.7697587557,-0.8652059967\H,-3.3
 56864223,-0.4788486247,0.0348425302\H,-2.285455137,-0.9172298175,-1.30
 17009935\H,3.0631714192,0.0280219517,1.0330855476\H,2.6077081923,-0.52
 37130525,-0.6040341928\H,2.4052205033,1.1792122978,-0.1644431311\\Vers
 ion=EM64L-G16RevA.03\State=1-A\HF=-307.6763594,-307.6762037,-307.67580
 1,-307.6752933,-307.6748278,-307.6745108,-307.674393,-307.6744876,-307
 .6747889,-307.6752553,-307.6757793,-307.6762003,-307.6763594,-307.6761
 884,-307.6757606,-307.6752361,-307.6747743,-307.6744803,-307.6743935,-
 307.6745191,-307.6748429,-307.6753122,-307.6758189,-307.6762147,-307.6
 763592,-307.676191,-307.6757757,-307.6752612,-307.6747992,-307.6744947
 ,-307.6743927,-307.6745025,-307.674814,-307.6752802,-307.6757939,-307.
 6762025,-307.6763594\RMSD=6.148e-09,8.134e-09,9.449e-09,6.480e-09,5.67
 3e-09,8.313e-09,5.367e-09,8.180e-09,9.966e-09,6.394e-09,2.464e-09,9.09
 7e-09,8.713e-09,8.245e-09,4.370e-09,3.373e-09,8.745e-09,8.119e-09,8.47
 2e-09,6.831e-09,3.339e-09,9.114e-09,9.623e-09,4.111e-09,9.680e-09,3.49
 2e-09,9.810e-09,3.813e-09,5.787e-09,5.733e-09,6.310e-09,3.169e-09,7.67
 7e-09,4.247e-09,6.258e-09,8.107e-09,3.244e-09\PG=C01 [X(C4H8O2)]\\@


 We're simply so accustomed to the marvels of everyday thought
 that we never wonder about it.
 -- Marvin Minsky in "Why people think computers are smart"
 Job cpu time:       0 days 19 hours 13 minutes 55.5 seconds.
 Elapsed time:       0 days  0 hours 58 minutes 22.5 seconds.
 File lengths (MBytes):  RWF=   1328 Int=      0 D2E=      0 Chk=     32 Scr=     32
 Normal termination of Gaussian 16 at Mon Mar 11 20:43:40 2019.
