 Entering Gaussian System, Link 0=g16
 Input=RJUFJBKOKNCXHH-UHFFFAOYSA-N_36by10.0_tor25_a1.com
 Output=RJUFJBKOKNCXHH-UHFFFAOYSA-N_36by10.0_tor25_a1.log
 Initial command:
 /shared/centos7/gaussian/g16/l1.exe "/scratch/underkoffler.c/gaussian_scratch/Gau-2092.inp" -scrdir="/scratch/underkoffler.c/gaussian_scratch/"
 Entering Link 1 = /shared/centos7/gaussian/g16/l1.exe PID=      2093.
  
 Copyright (c) 1988,1990,1992,1993,1995,1998,2003,2009,2016,
            Gaussian, Inc.  All Rights Reserved.
  
 This is part of the Gaussian(R) 16 program.  It is based on
 the Gaussian(R) 09 system (copyright 2009, Gaussian, Inc.),
 the Gaussian(R) 03 system (copyright 2003, Gaussian, Inc.),
 the Gaussian(R) 98 system (copyright 1998, Gaussian, Inc.),
 the Gaussian(R) 94 system (copyright 1995, Gaussian, Inc.),
 the Gaussian 92(TM) system (copyright 1992, Gaussian, Inc.),
 the Gaussian 90(TM) system (copyright 1990, Gaussian, Inc.),
 the Gaussian 88(TM) system (copyright 1988, Gaussian, Inc.),
 the Gaussian 86(TM) system (copyright 1986, Carnegie Mellon
 University), and the Gaussian 82(TM) system (copyright 1983,
 Carnegie Mellon University). Gaussian is a federally registered
 trademark of Gaussian, Inc.
  
 This software contains proprietary and confidential information,
 including trade secrets, belonging to Gaussian, Inc.
  
 This software is provided under written license and may be
 used, copied, transmitted, or stored only in accord with that
 written license.
  
 The following legend is applicable only to US Government
 contracts under FAR:
  
                    RESTRICTED RIGHTS LEGEND
  
 Use, reproduction and disclosure by the US Government is
 subject to restrictions as set forth in subparagraphs (a)
 and (c) of the Commercial Computer Software - Restricted
 Rights clause in FAR 52.227-19.
  
 Gaussian, Inc.
 340 Quinnipiac St., Bldg. 40, Wallingford CT 06492
  
  
 ---------------------------------------------------------------
 Warning -- This program may not be used in any manner that
 competes with the business of Gaussian, Inc. or will provide
 assistance to any competitor of Gaussian, Inc.  The licensee
 of this program is prohibited from giving any competitor of
 Gaussian, Inc. access to this program.  By using this program,
 the user acknowledges that Gaussian, Inc. is engaged in the
 business of creating and licensing software in the field of
 computational chemistry and represents and warrants to the
 licensee that it is not a competitor of Gaussian, Inc. and that
 it will not use this program in any manner prohibited above.
 ---------------------------------------------------------------
  

 Cite this work as:
 Gaussian 16, Revision A.03,
 M. J. Frisch, G. W. Trucks, H. B. Schlegel, G. E. Scuseria, 
 M. A. Robb, J. R. Cheeseman, G. Scalmani, V. Barone, 
 G. A. Petersson, H. Nakatsuji, X. Li, M. Caricato, A. V. Marenich, 
 J. Bloino, B. G. Janesko, R. Gomperts, B. Mennucci, H. P. Hratchian, 
 J. V. Ortiz, A. F. Izmaylov, J. L. Sonnenberg, D. Williams-Young, 
 F. Ding, F. Lipparini, F. Egidi, J. Goings, B. Peng, A. Petrone, 
 T. Henderson, D. Ranasinghe, V. G. Zakrzewski, J. Gao, N. Rega, 
 G. Zheng, W. Liang, M. Hada, M. Ehara, K. Toyota, R. Fukuda, 
 J. Hasegawa, M. Ishida, T. Nakajima, Y. Honda, O. Kitao, H. Nakai, 
 T. Vreven, K. Throssell, J. A. Montgomery, Jr., J. E. Peralta, 
 F. Ogliaro, M. J. Bearpark, J. J. Heyd, E. N. Brothers, K. N. Kudin, 
 V. N. Staroverov, T. A. Keith, R. Kobayashi, J. Normand, 
 K. Raghavachari, A. P. Rendell, J. C. Burant, S. S. Iyengar, 
 J. Tomasi, M. Cossi, J. M. Millam, M. Klene, C. Adamo, R. Cammi, 
 J. W. Ochterski, R. L. Martin, K. Morokuma, O. Farkas, 
 J. B. Foresman, and D. J. Fox, Gaussian, Inc., Wallingford CT, 2016.
 
 ******************************************
 Gaussian 16:  EM64L-G16RevA.03 25-Dec-2016
                11-Mar-2019 
 ******************************************
 %nprocshared=20
 Will use up to   20 processors via shared memory.
 %mem=5GB
 ----------------------------------------------
 #p m062x/6-311+g(2df,2p) Opt=(CalcFC,ModRedun)
 ----------------------------------------------
 1/10=4,18=120,19=15,26=3,38=1/1,3;
 2/9=110,12=2,17=6,18=5,40=1/2;
 3/5=4,6=6,7=214,11=2,25=1,30=1,71=2,74=-55,140=1/1,2,3;
 4//1;
 5/5=2,38=5/2;
 8/6=4,10=90,11=11/1;
 11/6=1,8=1,9=11,15=111,16=1/1,2,10;
 10/6=1,13=1/2;
 6/7=2,8=2,9=2,10=2,28=1/1;
 7/10=1,18=20,25=1/1,2,3,16;
 1/10=4,18=20,19=15,26=3/3(2);
 2/9=110/2;
 99//99;
 2/9=110/2;
 3/5=4,6=6,7=214,11=2,25=1,30=1,71=1,74=-55/1,2,3;
 4/5=5,16=3,69=1/1;
 5/5=2,38=5/2;
 7//1,2,3,16;
 1/18=20,19=15,26=3/3(-5);
 2/9=110/2;
 6/7=2,8=2,9=2,10=2,19=2,28=1/1;
 99/9=1/99;
 Leave Link    1 at Mon Mar 11 19:45:10 2019, MaxMem=   671088640 cpu:              45.4 elap:               2.4
 (Enter /shared/centos7/gaussian/g16/l101.exe)
 ----------------------------------------
 Gaussian Input Prepared from Scan Object
 ----------------------------------------
 Symbolic Z-matrix:
 Charge =  0 Multiplicity = 1
 O                     1.14326  -0.70073   0. 
 O                     0.10186   1.27773  0. 
 C                    -1.21113  -0.74369  0. 
 C                    -2.46073   0.11987   0. 
 C                     2.38807  -0.00667   0. 
 C                     0.05125   0.07888  0. 
 H                    -1.17195  -1.40094  -0.87043 
 H                    -1.17195  -1.40095   0.87042 
 H                    -2.48427   0.76359   0.87706 
 H                    -3.3542   -0.5015    0. 
 H                    -2.48427   0.76359  -0.87705 
 H                     3.15708  -0.77177   0. 
 H                     2.47194   0.62082  -0.88515 
 H                     2.47194   0.62082   0.88515 
 
 The following ModRedundant input section has been read:
 B       1       5 B                                                           
 B       3       7 B                                                           
 B       5      14 B                                                           
 B       1       6 B                                                           
 B       4      10 B                                                           
 B       4      11 B                                                           
 B       4       9 B                                                           
 B       5      12 B                                                           
 B       5      13 B                                                           
 B       2       6 B                                                           
 B       3       4 B                                                           
 B       3       6 B                                                           
 B       3       8 B                                                           
 D       8       3       6       2 S  36 10.000                                
 
 ITRead=  0  0  0  0  0  0  0  0  0  0  0  0  0  0
 MicOpt= -1 -1 -1 -1 -1 -1 -1 -1 -1 -1 -1 -1 -1 -1
 NAtoms=     14 NQM=       14 NQMF=       0 NMMI=      0 NMMIF=      0
                NMic=       0 NMicF=      0.
                    Isotopes and Nuclear Properties:
 (Nuclear quadrupole moments (NQMom) in fm**2, nuclear magnetic moments (NMagM)
  in nuclear magnetons)

  Atom         1           2           3           4           5           6           7           8           9          10
 IAtWgt=          16          16          12          12          12          12           1           1           1           1
 AtmWgt=  15.9949146  15.9949146  12.0000000  12.0000000  12.0000000  12.0000000   1.0078250   1.0078250   1.0078250   1.0078250
 NucSpn=           0           0           0           0           0           0           1           1           1           1
 AtZEff=  -0.0000000  -0.0000000  -0.0000000  -0.0000000  -0.0000000  -0.0000000  -0.0000000  -0.0000000  -0.0000000  -0.0000000
 NQMom=    0.0000000   0.0000000   0.0000000   0.0000000   0.0000000   0.0000000   0.0000000   0.0000000   0.0000000   0.0000000
 NMagM=    0.0000000   0.0000000   0.0000000   0.0000000   0.0000000   0.0000000   2.7928460   2.7928460   2.7928460   2.7928460
 AtZNuc=   8.0000000   8.0000000   6.0000000   6.0000000   6.0000000   6.0000000   1.0000000   1.0000000   1.0000000   1.0000000

  Atom        11          12          13          14
 IAtWgt=           1           1           1           1
 AtmWgt=   1.0078250   1.0078250   1.0078250   1.0078250
 NucSpn=           1           1           1           1
 AtZEff=  -0.0000000  -0.0000000  -0.0000000  -0.0000000
 NQMom=    0.0000000   0.0000000   0.0000000   0.0000000
 NMagM=    2.7928460   2.7928460   2.7928460   2.7928460
 AtZNuc=   1.0000000   1.0000000   1.0000000   1.0000000
 Leave Link  101 at Mon Mar 11 19:45:10 2019, MaxMem=   671088640 cpu:               5.8 elap:               0.3
 (Enter /shared/centos7/gaussian/g16/l103.exe)

 GradGradGradGradGradGradGradGradGradGradGradGradGradGradGradGradGradGrad
 Berny optimization.
 Initialization pass.
                           ----------------------------
                           !    Initial Parameters    !
                           ! (Angstroms and Degrees)  !
 --------------------------                            --------------------------
 ! Name  Definition              Value          Derivative Info.                !
 --------------------------------------------------------------------------------
 ! R1    R(1,5)                  1.4252         calculate D2E/DX2 analytically  !
 ! R2    R(1,6)                  1.3417         calculate D2E/DX2 analytically  !
 ! R3    R(2,6)                  1.1999         calculate D2E/DX2 analytically  !
 ! R4    R(3,4)                  1.519          calculate D2E/DX2 analytically  !
 ! R5    R(3,6)                  1.5067         calculate D2E/DX2 analytically  !
 ! R6    R(3,7)                  1.0914         calculate D2E/DX2 analytically  !
 ! R7    R(3,8)                  1.0914         calculate D2E/DX2 analytically  !
 ! R8    R(4,9)                  1.0882         calculate D2E/DX2 analytically  !
 ! R9    R(4,10)                 1.0883         calculate D2E/DX2 analytically  !
 ! R10   R(4,11)                 1.0882         calculate D2E/DX2 analytically  !
 ! R11   R(5,12)                 1.0848         calculate D2E/DX2 analytically  !
 ! R12   R(5,13)                 1.0882         calculate D2E/DX2 analytically  !
 ! R13   R(5,14)                 1.0882         calculate D2E/DX2 analytically  !
 ! A1    A(5,1,6)              115.3337         calculate D2E/DX2 analytically  !
 ! A2    A(4,3,6)              112.265          calculate D2E/DX2 analytically  !
 ! A3    A(4,3,7)              111.8328         calculate D2E/DX2 analytically  !
 ! A4    A(4,3,8)              111.8328         calculate D2E/DX2 analytically  !
 ! A5    A(6,3,7)              107.379          calculate D2E/DX2 analytically  !
 ! A6    A(6,3,8)              107.379          calculate D2E/DX2 analytically  !
 ! A7    A(7,3,8)              105.7892         calculate D2E/DX2 analytically  !
 ! A8    A(3,4,9)              110.7385         calculate D2E/DX2 analytically  !
 ! A9    A(3,4,10)             110.5363         calculate D2E/DX2 analytically  !
 ! A10   A(3,4,11)             110.7385         calculate D2E/DX2 analytically  !
 ! A11   A(9,4,10)             108.6625         calculate D2E/DX2 analytically  !
 ! A12   A(9,4,11)             107.409          calculate D2E/DX2 analytically  !
 ! A13   A(10,4,11)            108.6625         calculate D2E/DX2 analytically  !
 ! A14   A(1,5,12)             106.0037         calculate D2E/DX2 analytically  !
 ! A15   A(1,5,13)             110.3716         calculate D2E/DX2 analytically  !
 ! A16   A(1,5,14)             110.3716         calculate D2E/DX2 analytically  !
 ! A17   A(12,5,13)            110.6129         calculate D2E/DX2 analytically  !
 ! A18   A(12,5,14)            110.6129         calculate D2E/DX2 analytically  !
 ! A19   A(13,5,14)            108.8545         calculate D2E/DX2 analytically  !
 ! A20   A(1,6,2)              123.1066         calculate D2E/DX2 analytically  !
 ! A21   A(1,6,3)              111.3877         calculate D2E/DX2 analytically  !
 ! A22   A(2,6,3)              125.5057         calculate D2E/DX2 analytically  !
 ! D1    D(6,1,5,12)          -180.0            calculate D2E/DX2 analytically  !
 ! D2    D(6,1,5,13)           -60.186          calculate D2E/DX2 analytically  !
 ! D3    D(6,1,5,14)            60.186          calculate D2E/DX2 analytically  !
 ! D4    D(5,1,6,2)              0.0            calculate D2E/DX2 analytically  !
 ! D5    D(5,1,6,3)            180.0            calculate D2E/DX2 analytically  !
 ! D6    D(6,3,4,9)            -59.521          calculate D2E/DX2 analytically  !
 ! D7    D(6,3,4,10)           180.0            calculate D2E/DX2 analytically  !
 ! D8    D(6,3,4,11)            59.521          calculate D2E/DX2 analytically  !
 ! D9    D(7,3,4,9)            179.7004         calculate D2E/DX2 analytically  !
 ! D10   D(7,3,4,10)            59.2214         calculate D2E/DX2 analytically  !
 ! D11   D(7,3,4,11)           -61.2576         calculate D2E/DX2 analytically  !
 ! D12   D(8,3,4,9)             61.2575         calculate D2E/DX2 analytically  !
 ! D13   D(8,3,4,10)           -59.2214         calculate D2E/DX2 analytically  !
 ! D14   D(8,3,4,11)          -179.7004         calculate D2E/DX2 analytically  !
 ! D15   D(4,3,6,1)            179.9998         calculate D2E/DX2 analytically  !
 ! D16   D(4,3,6,2)             -0.0002         calculate D2E/DX2 analytically  !
 ! D17   D(7,3,6,1)            -56.6864         calculate D2E/DX2 analytically  !
 ! D18   D(7,3,6,2)            123.3136         calculate D2E/DX2 analytically  !
 ! D19   D(8,3,6,1)             56.6861         calculate D2E/DX2 analytically  !
 ! D20   D(8,3,6,2)           -123.3139         Scan                            !
 --------------------------------------------------------------------------------
 Trust Radius=3.00D-01 FncErr=1.00D-07 GrdErr=1.00D-06 EigMax=2.50D+02 EigMin=1.00D-04
 Number of optimizations in scan=  37
 Number of steps in this run=     65 maximum allowed number of steps=    100.
 GradGradGradGradGradGradGradGradGradGradGradGradGradGradGradGradGradGrad

 Leave Link  103 at Mon Mar 11 19:45:10 2019, MaxMem=   671088640 cpu:               0.2 elap:               0.0
 (Enter /shared/centos7/gaussian/g16/l202.exe)
                          Input orientation:                          
 ---------------------------------------------------------------------
 Center     Atomic      Atomic             Coordinates (Angstroms)
 Number     Number       Type             X           Y           Z
 ---------------------------------------------------------------------
      1          8           0        1.143256   -0.700732    0.000000
      2          8           0        0.101861    1.277730   -0.000000
      3          6           0       -1.211130   -0.743685   -0.000001
      4          6           0       -2.460734    0.119865    0.000002
      5          6           0        2.388074   -0.006671    0.000001
      6          6           0        0.051249    0.078882   -0.000000
      7          1           0       -1.171953   -1.400941   -0.870426
      8          1           0       -1.171952   -1.400946    0.870420
      9          1           0       -2.484273    0.763589    0.877061
     10          1           0       -3.354195   -0.501498    0.000000
     11          1           0       -2.484274    0.763594   -0.877054
     12          1           0        3.157077   -0.771767    0.000001
     13          1           0        2.471940    0.620820   -0.885153
     14          1           0        2.471940    0.620820    0.885154
 ---------------------------------------------------------------------
                    Distance matrix (angstroms):
                    1          2          3          4          5
     1  O    0.000000
     2  O    2.235803   0.000000
     3  C    2.354779   2.410408   0.000000
     4  C    3.696232   2.812036   1.518957   0.000000
     5  C    1.425234   2.622300   3.673890   4.850460   0.000000
     6  C    1.341744   1.199916   1.506724   2.512318   2.338391
     7  H    2.570628   3.091201   1.091403   2.175191   3.921151
     8  H    2.570626   3.091203   1.091403   2.175191   3.921150
     9  H    4.009045   2.778789   2.159168   1.088195   5.010221
    10  H    4.501863   3.887156   2.156706   1.088285   5.763551
    11  H    4.009046   2.778787   2.159168   1.088195   5.010221
    12  H    2.015074   3.678965   4.368298   5.688130   1.084775
    13  H    2.072534   2.613867   4.026211   5.036441   1.088244
    14  H    2.072534   2.613867   4.026212   5.036440   1.088244
                    6          7          8          9         10
     6  C    0.000000
     7  H    2.108018   0.000000
     8  H    2.108018   1.740846   0.000000
     9  H    2.768923   3.075888   2.531293   0.000000
    10  H    3.454547   2.515715   2.515716   1.768176   0.000000
    11  H    2.768923   2.531293   3.075888   1.754116   1.768176
    12  H    3.220213   4.460270   4.460268   5.911970   6.516880
    13  H    2.633807   4.167216   4.521894   5.262113   5.998913
    14  H    2.633807   4.521895   4.167217   4.958276   5.998912
                   11         12         13         14
    11  H    0.000000
    12  H    5.911972   0.000000
    13  H    4.958277   1.786676   0.000000
    14  H    5.262112   1.786676   1.770306   0.000000
 Stoichiometry    C4H8O2
 Framework group  C1[X(C4H8O2)]
 Deg. of freedom    36
 Full point group                 C1      NOp   1
 Largest Abelian subgroup         C1      NOp   1
 Largest concise Abelian subgroup C1      NOp   1
                         Standard orientation:                         
 ---------------------------------------------------------------------
 Center     Atomic      Atomic             Coordinates (Angstroms)
 Number     Number       Type             X           Y           Z
 ---------------------------------------------------------------------
      1          8           0        1.143256   -0.700732    0.000000
      2          8           0        0.101861    1.277730   -0.000000
      3          6           0       -1.211130   -0.743685   -0.000001
      4          6           0       -2.460734    0.119865    0.000001
      5          6           0        2.388074   -0.006671    0.000000
      6          6           0        0.051249    0.078882   -0.000000
      7          1           0       -1.171953   -1.400941   -0.870426
      8          1           0       -1.171952   -1.400946    0.870420
      9          1           0       -2.484273    0.763589    0.877061
     10          1           0       -3.354195   -0.501498    0.000000
     11          1           0       -2.484274    0.763594   -0.877055
     12          1           0        3.157078   -0.771767    0.000001
     13          1           0        2.471940    0.620820   -0.885153
     14          1           0        2.471940    0.620821    0.885153
 ---------------------------------------------------------------------
 Rotational constants (GHZ):           9.6754876           2.1660943           1.8295412
 Leave Link  202 at Mon Mar 11 19:45:10 2019, MaxMem=   671088640 cpu:               0.2 elap:               0.0
 (Enter /shared/centos7/gaussian/g16/l301.exe)
 Standard basis: 6-311+G(2df,2p) (5D, 7F)
 Ernie: Thresh=  0.10000D-02 Tol=  0.10000D-05 Strict=F.
 There are   306 symmetry adapted cartesian basis functions of A   symmetry.
 There are   276 symmetry adapted basis functions of A   symmetry.
   276 basis functions,   400 primitive gaussians,   306 cartesian basis functions
    24 alpha electrons       24 beta electrons
       nuclear repulsion energy       246.5133791555 Hartrees.
 IExCor= 4336 DFT=T Ex+Corr=M062X ExCW=0 ScaHFX=  0.540000
 ScaDFX=  1.000000  1.000000  1.000000  1.000000 ScalE2=  1.000000  1.000000
 IRadAn=      5 IRanWt=     -1 IRanGd=            0 ICorTp=0 IEmpDi=  4
 NAtoms=   14 NActive=   14 NUniq=   14 SFac= 1.00D+00 NAtFMM=   60 NAOKFM=F Big=F
 Integral buffers will be    131072 words long.
 Raffenetti 2 integral format.
 Two-electron integral symmetry is turned on.
 Leave Link  301 at Mon Mar 11 19:45:10 2019, MaxMem=   671088640 cpu:               0.8 elap:               0.1
 (Enter /shared/centos7/gaussian/g16/l302.exe)
 NPDir=0 NMtPBC=     1 NCelOv=     1 NCel=       1 NClECP=     1 NCelD=      1
         NCelK=      1 NCelE2=     1 NClLst=     1 CellRange=     0.0.
 One-electron integrals computed using PRISM.
 One-electron integral symmetry used in STVInt
 NBasis=   276 RedAO= T EigKep=  2.92D-05  NBF=   276
 NBsUse=   276 1.00D-06 EigRej= -1.00D+00 NBFU=   276
 Precomputing XC quadrature grid using
 IXCGrd= 4 IRadAn=           5 IRanWt=          -1 IRanGd=           0 AccXCQ= 0.00D+00.
 Generated NRdTot=       0 NPtTot=           0 NUsed=           0 NTot=          32
 NSgBfM=   306   306   306   306   306 MxSgAt=    14 MxSgA2=    14.
 Leave Link  302 at Mon Mar 11 19:45:10 2019, MaxMem=   671088640 cpu:               5.9 elap:               0.3
 (Enter /shared/centos7/gaussian/g16/l303.exe)
 DipDrv:  MaxL=1.
 Leave Link  303 at Mon Mar 11 19:45:10 2019, MaxMem=   671088640 cpu:               0.5 elap:               0.0
 (Enter /shared/centos7/gaussian/g16/l401.exe)
 ExpMin= 4.38D-02 ExpMax= 8.59D+03 ExpMxC= 1.30D+03 IAcc=3 IRadAn=         5 AccDes= 0.00D+00
 Harris functional with IExCor= 1009 and IRadAn=       5 diagonalized for initial guess.
 HarFok:  IExCor= 1009 AccDes= 0.00D+00 IRadAn=         5 IDoV= 1 UseB2=F ITyADJ=14
 ICtDFT=  3500011 ScaDFX=  1.000000  1.000000  1.000000  1.000000
 FoFCou: FMM=F IPFlag=           0 FMFlag=      100000 FMFlg1=           0
         NFxFlg=           0 DoJE=T BraDBF=F KetDBF=T FulRan=T
         wScrn=  0.000000 ICntrl=       500 IOpCl=  0 I1Cent=   200000004 NGrid=           0
         NMat0=    1 NMatS0=      1 NMatT0=    0 NMatD0=    1 NMtDS0=    0 NMtDT0=    0
 Petite list used in FoFCou.
 Harris En= -307.574768962630    
 JPrj=0 DoOrth=F DoCkMO=F.
 Leave Link  401 at Mon Mar 11 19:45:11 2019, MaxMem=   671088640 cpu:              15.5 elap:               0.8
 (Enter /shared/centos7/gaussian/g16/l502.exe)
 Integral symmetry usage will be decided dynamically.
 Closed shell SCF:
 Using DIIS extrapolation, IDIIS=  1040.
 NGot=   671088640 LenX=   670892442 LenY=   670798365
 Requested convergence on RMS density matrix=1.00D-08 within 128 cycles.
 Requested convergence on MAX density matrix=1.00D-06.
 Requested convergence on             energy=1.00D-06.
 No special actions if energy rises.
 Fock matrices will be formed incrementally for  20 cycles.

 Cycle   1  Pass 1  IDiag  1:
 FoFJK:  IHMeth= 1 ICntrl=       0 DoSepK=F KAlg= 0 I1Cent=           0 FoldK=F
 IRaf= 960000000 NMat=       1 IRICut=       1 DoRegI=T DoRafI=F ISym2E= 0 IDoP0=0 IntGTp=1.
 FoFCou: FMM=F IPFlag=           0 FMFlag=      100000 FMFlg1=           0
         NFxFlg=           0 DoJE=F BraDBF=F KetDBF=F FulRan=T
         wScrn=  0.000000 ICntrl=         0 IOpCl=  0 I1Cent=           0 NGrid=           0
         NMat0=    1 NMatS0=      1 NMatT0=    0 NMatD0=    1 NMtDS0=    0 NMtDT0=    0
 Symmetry not used in FoFCou.
 E= -307.466600672733    
 DIIS: error= 3.26D-02 at cycle   1 NSaved=   1.
 NSaved= 1 IEnMin= 1 EnMin= -307.466600672733     IErMin= 1 ErrMin= 3.26D-02
 ErrMax= 3.26D-02  0.00D+00 EMaxC= 1.00D-01 BMatC= 2.86D-01 BMatP= 2.86D-01
 IDIUse=3 WtCom= 6.74D-01 WtEn= 3.26D-01
 Coeff-Com:  0.100D+01
 Coeff-En:   0.100D+01
 Coeff:      0.100D+01
 Gap=     0.322 Goal=   None    Shift=    0.000
 GapD=    0.322 DampG=1.000 DampE=0.500 DampFc=0.5000 IDamp=-1.
 Damping current iteration by 5.00D-01
 RMSDP=2.70D-03 MaxDP=1.09D-01              OVMax= 1.90D-01

 Cycle   2  Pass 1  IDiag  1:
 RMSU=  1.32D-03    CP:  9.71D-01
 E= -307.566995409295     Delta-E=       -0.100394736562 Rises=F Damp=T
 DIIS: error= 5.85D-03 at cycle   2 NSaved=   2.
 NSaved= 2 IEnMin= 2 EnMin= -307.566995409295     IErMin= 2 ErrMin= 5.85D-03
 ErrMax= 5.85D-03  0.00D+00 EMaxC= 1.00D-01 BMatC= 2.29D-02 BMatP= 2.86D-01
 IDIUse=3 WtCom= 9.41D-01 WtEn= 5.85D-02
 Coeff-Com: -0.253D-01 0.103D+01
 Coeff-En:   0.000D+00 0.100D+01
 Coeff:     -0.238D-01 0.102D+01
 Gap=     0.388 Goal=   None    Shift=    0.000
 RMSDP=1.08D-03 MaxDP=8.07D-02 DE=-1.00D-01 OVMax= 1.12D-01

 Cycle   3  Pass 1  IDiag  1:
 RMSU=  1.04D-03    CP:  9.42D-01  9.57D-01
 E= -307.665118869115     Delta-E=       -0.098123459820 Rises=F Damp=F
 DIIS: error= 7.46D-03 at cycle   3 NSaved=   3.
 NSaved= 3 IEnMin= 3 EnMin= -307.665118869115     IErMin= 2 ErrMin= 5.85D-03
 ErrMax= 7.46D-03  0.00D+00 EMaxC= 1.00D-01 BMatC= 1.57D-02 BMatP= 2.29D-02
 IDIUse=3 WtCom= 9.25D-01 WtEn= 7.46D-02
 Coeff-Com: -0.816D-01 0.486D+00 0.596D+00
 Coeff-En:   0.000D+00 0.000D+00 0.100D+01
 Coeff:     -0.755D-01 0.450D+00 0.626D+00
 Gap=     0.369 Goal=   None    Shift=    0.000
 RMSDP=3.85D-04 MaxDP=1.59D-02 DE=-9.81D-02 OVMax= 4.50D-02

 Cycle   4  Pass 1  IDiag  1:
 RMSU=  3.64D-04    CP:  9.43D-01  1.04D+00  9.41D-01
 E= -307.674247245369     Delta-E=       -0.009128376254 Rises=F Damp=F
 DIIS: error= 3.35D-03 at cycle   4 NSaved=   4.
 NSaved= 4 IEnMin= 4 EnMin= -307.674247245369     IErMin= 4 ErrMin= 3.35D-03
 ErrMax= 3.35D-03  0.00D+00 EMaxC= 1.00D-01 BMatC= 2.86D-03 BMatP= 1.57D-02
 IDIUse=3 WtCom= 9.67D-01 WtEn= 3.35D-02
 Coeff-Com: -0.292D-01 0.814D-01 0.331D+00 0.617D+00
 Coeff-En:   0.000D+00 0.000D+00 0.151D+00 0.849D+00
 Coeff:     -0.282D-01 0.787D-01 0.325D+00 0.624D+00
 Gap=     0.367 Goal=   None    Shift=    0.000
 RMSDP=1.36D-04 MaxDP=5.31D-03 DE=-9.13D-03 OVMax= 1.17D-02

 Cycle   5  Pass 1  IDiag  1:
 RMSU=  6.53D-05    CP:  9.40D-01  1.02D+00  1.00D+00  7.41D-01
 E= -307.676314094258     Delta-E=       -0.002066848889 Rises=F Damp=F
 DIIS: error= 4.16D-04 at cycle   5 NSaved=   5.
 NSaved= 5 IEnMin= 5 EnMin= -307.676314094258     IErMin= 5 ErrMin= 4.16D-04
 ErrMax= 4.16D-04  0.00D+00 EMaxC= 1.00D-01 BMatC= 5.71D-05 BMatP= 2.86D-03
 IDIUse=3 WtCom= 9.96D-01 WtEn= 4.16D-03
 Coeff-Com: -0.703D-02 0.132D-01 0.103D+00 0.241D+00 0.650D+00
 Coeff-En:   0.000D+00 0.000D+00 0.000D+00 0.000D+00 0.100D+01
 Coeff:     -0.700D-02 0.131D-01 0.102D+00 0.240D+00 0.651D+00
 Gap=     0.367 Goal=   None    Shift=    0.000
 RMSDP=2.30D-05 MaxDP=1.12D-03 DE=-2.07D-03 OVMax= 2.30D-03

 Cycle   6  Pass 1  IDiag  1:
 RMSU=  1.96D-05    CP:  9.39D-01  1.02D+00  1.01D+00  7.62D-01  9.38D-01
 E= -307.676353115755     Delta-E=       -0.000039021497 Rises=F Damp=F
 DIIS: error= 1.28D-04 at cycle   6 NSaved=   6.
 NSaved= 6 IEnMin= 6 EnMin= -307.676353115755     IErMin= 6 ErrMin= 1.28D-04
 ErrMax= 1.28D-04  0.00D+00 EMaxC= 1.00D-01 BMatC= 7.45D-06 BMatP= 5.71D-05
 IDIUse=3 WtCom= 9.99D-01 WtEn= 1.28D-03
 Coeff-Com: -0.185D-03-0.233D-02 0.150D-01 0.468D-01 0.296D+00 0.645D+00
 Coeff-En:   0.000D+00 0.000D+00 0.000D+00 0.000D+00 0.000D+00 0.100D+01
 Coeff:     -0.185D-03-0.233D-02 0.150D-01 0.467D-01 0.296D+00 0.645D+00
 Gap=     0.367 Goal=   None    Shift=    0.000
 RMSDP=9.01D-06 MaxDP=4.00D-04 DE=-3.90D-05 OVMax= 4.91D-04

 Cycle   7  Pass 1  IDiag  1:
 RMSU=  6.38D-06    CP:  9.39D-01  1.01D+00  1.01D+00  7.68D-01  9.92D-01
                    CP:  9.86D-01
 E= -307.676358818181     Delta-E=       -0.000005702427 Rises=F Damp=F
 DIIS: error= 4.10D-05 at cycle   7 NSaved=   7.
 NSaved= 7 IEnMin= 7 EnMin= -307.676358818181     IErMin= 7 ErrMin= 4.10D-05
 ErrMax= 4.10D-05  0.00D+00 EMaxC= 1.00D-01 BMatC= 4.06D-07 BMatP= 7.45D-06
 IDIUse=1 WtCom= 1.00D+00 WtEn= 0.00D+00
 Coeff-Com:  0.113D-02-0.266D-02-0.101D-01-0.241D-01-0.133D-01 0.127D+00
 Coeff-Com:  0.922D+00
 Coeff:      0.113D-02-0.266D-02-0.101D-01-0.241D-01-0.133D-01 0.127D+00
 Coeff:      0.922D+00
 Gap=     0.367 Goal=   None    Shift=    0.000
 RMSDP=4.27D-06 MaxDP=1.27D-04 DE=-5.70D-06 OVMax= 3.89D-04

 Cycle   8  Pass 1  IDiag  1:
 RMSU=  2.42D-06    CP:  9.39D-01  1.01D+00  1.01D+00  7.68D-01  1.02D+00
                    CP:  1.07D+00  1.09D+00
 E= -307.676359347558     Delta-E=       -0.000000529377 Rises=F Damp=F
 DIIS: error= 1.29D-05 at cycle   8 NSaved=   8.
 NSaved= 8 IEnMin= 8 EnMin= -307.676359347558     IErMin= 8 ErrMin= 1.29D-05
 ErrMax= 1.29D-05  0.00D+00 EMaxC= 1.00D-01 BMatC= 7.18D-08 BMatP= 4.06D-07
 IDIUse=1 WtCom= 1.00D+00 WtEn= 0.00D+00
 Coeff-Com:  0.436D-03-0.803D-03-0.445D-02-0.131D-01-0.299D-01-0.176D-01
 Coeff-Com:  0.332D+00 0.734D+00
 Coeff:      0.436D-03-0.803D-03-0.445D-02-0.131D-01-0.299D-01-0.176D-01
 Coeff:      0.332D+00 0.734D+00
 Gap=     0.367 Goal=   None    Shift=    0.000
 RMSDP=1.10D-06 MaxDP=3.21D-05 DE=-5.29D-07 OVMax= 9.13D-05

 Cycle   9  Pass 1  IDiag  1:
 RMSU=  7.94D-07    CP:  9.39D-01  1.01D+00  1.01D+00  7.67D-01  1.03D+00
                    CP:  1.08D+00  1.16D+00  1.04D+00
 E= -307.676359425678     Delta-E=       -0.000000078120 Rises=F Damp=F
 DIIS: error= 4.56D-06 at cycle   9 NSaved=   9.
 NSaved= 9 IEnMin= 9 EnMin= -307.676359425678     IErMin= 9 ErrMin= 4.56D-06
 ErrMax= 4.56D-06  0.00D+00 EMaxC= 1.00D-01 BMatC= 3.66D-09 BMatP= 7.18D-08
 IDIUse=1 WtCom= 1.00D+00 WtEn= 0.00D+00
 Coeff-Com: -0.766D-04 0.189D-03 0.878D-03 0.119D-02-0.147D-02-0.154D-01
 Coeff-Com: -0.664D-01 0.668D-01 0.101D+01
 Coeff:     -0.766D-04 0.189D-03 0.878D-03 0.119D-02-0.147D-02-0.154D-01
 Coeff:     -0.664D-01 0.668D-01 0.101D+01
 Gap=     0.367 Goal=   None    Shift=    0.000
 RMSDP=4.11D-07 MaxDP=1.61D-05 DE=-7.81D-08 OVMax= 4.17D-05

 Cycle  10  Pass 1  IDiag  1:
 RMSU=  2.09D-07    CP:  9.39D-01  1.01D+00  1.01D+00  7.66D-01  1.03D+00
                    CP:  1.07D+00  1.17D+00  1.13D+00  1.17D+00
 E= -307.676359431254     Delta-E=       -0.000000005576 Rises=F Damp=F
 DIIS: error= 5.83D-07 at cycle  10 NSaved=  10.
 NSaved=10 IEnMin=10 EnMin= -307.676359431254     IErMin=10 ErrMin= 5.83D-07
 ErrMax= 5.83D-07  0.00D+00 EMaxC= 1.00D-01 BMatC= 1.38D-10 BMatP= 3.66D-09
 IDIUse=1 WtCom= 1.00D+00 WtEn= 0.00D+00
 Coeff-Com: -0.277D-04 0.598D-04 0.341D-03 0.765D-03 0.101D-02-0.948D-03
 Coeff-Com: -0.253D-01-0.295D-01 0.148D+00 0.906D+00
 Coeff:     -0.277D-04 0.598D-04 0.341D-03 0.765D-03 0.101D-02-0.948D-03
 Coeff:     -0.253D-01-0.295D-01 0.148D+00 0.906D+00
 Gap=     0.367 Goal=   None    Shift=    0.000
 RMSDP=8.43D-08 MaxDP=3.97D-06 DE=-5.58D-09 OVMax= 7.58D-06

 Cycle  11  Pass 1  IDiag  1:
 RMSU=  4.02D-08    CP:  9.39D-01  1.01D+00  1.01D+00  7.66D-01  1.03D+00
                    CP:  1.07D+00  1.17D+00  1.15D+00  1.22D+00  1.07D+00
 E= -307.676359431441     Delta-E=       -0.000000000187 Rises=F Damp=F
 DIIS: error= 2.56D-07 at cycle  11 NSaved=  11.
 NSaved=11 IEnMin=11 EnMin= -307.676359431441     IErMin=11 ErrMin= 2.56D-07
 ErrMax= 2.56D-07  0.00D+00 EMaxC= 1.00D-01 BMatC= 2.23D-11 BMatP= 1.38D-10
 IDIUse=1 WtCom= 1.00D+00 WtEn= 0.00D+00
 Coeff-Com: -0.381D-05 0.638D-05 0.696D-04 0.188D-03 0.442D-03 0.609D-03
 Coeff-Com: -0.439D-02-0.145D-01-0.162D-01 0.291D+00 0.742D+00
 Coeff:     -0.381D-05 0.638D-05 0.696D-04 0.188D-03 0.442D-03 0.609D-03
 Coeff:     -0.439D-02-0.145D-01-0.162D-01 0.291D+00 0.742D+00
 Gap=     0.367 Goal=   None    Shift=    0.000
 RMSDP=2.02D-08 MaxDP=9.58D-07 DE=-1.87D-10 OVMax= 1.65D-06

 Cycle  12  Pass 1  IDiag  1:
 RMSU=  1.44D-08    CP:  9.39D-01  1.01D+00  1.01D+00  7.66D-01  1.03D+00
                    CP:  1.07D+00  1.17D+00  1.15D+00  1.23D+00  1.13D+00
                    CP:  1.01D+00
 E= -307.676359431461     Delta-E=       -0.000000000020 Rises=F Damp=F
 DIIS: error= 7.65D-08 at cycle  12 NSaved=  12.
 NSaved=12 IEnMin=12 EnMin= -307.676359431461     IErMin=12 ErrMin= 7.65D-08
 ErrMax= 7.65D-08  0.00D+00 EMaxC= 1.00D-01 BMatC= 1.92D-12 BMatP= 2.23D-11
 IDIUse=1 WtCom= 1.00D+00 WtEn= 0.00D+00
 Coeff-Com:  0.197D-05-0.427D-05-0.132D-04-0.283D-04 0.222D-04 0.207D-03
 Coeff-Com:  0.137D-02-0.965D-03-0.201D-01-0.164D-01 0.221D+00 0.815D+00
 Coeff:      0.197D-05-0.427D-05-0.132D-04-0.283D-04 0.222D-04 0.207D-03
 Coeff:      0.137D-02-0.965D-03-0.201D-01-0.164D-01 0.221D+00 0.815D+00
 Gap=     0.367 Goal=   None    Shift=    0.000
 RMSDP=6.15D-09 MaxDP=2.25D-07 DE=-2.03D-11 OVMax= 3.72D-07

 SCF Done:  E(RM062X) =  -307.676359431     A.U. after   12 cycles
            NFock= 12  Conv=0.61D-08     -V/T= 2.0036
 KE= 3.065735887955D+02 PE=-1.212779270351D+03 EE= 3.520159429690D+02
 Leave Link  502 at Mon Mar 11 19:45:38 2019, MaxMem=   671088640 cpu:             532.8 elap:              26.7
 (Enter /shared/centos7/gaussian/g16/l801.exe)
 DoSCS=F DFT=T ScalE2(SS,OS)=  1.000000  1.000000
 Range of M.O.s used for correlation:     1   276
 NBasis=   276 NAE=    24 NBE=    24 NFC=     0 NFV=     0
 NROrb=    276 NOA=    24 NOB=    24 NVA=   252 NVB=   252

 **** Warning!!: The largest alpha MO coefficient is  0.57774287D+02

 Leave Link  801 at Mon Mar 11 19:45:38 2019, MaxMem=   671088640 cpu:               0.3 elap:               0.0
 (Enter /shared/centos7/gaussian/g16/l1101.exe)
 Using compressed storage, NAtomX=    14.
 Will process     15 centers per pass.
 Leave Link 1101 at Mon Mar 11 19:45:38 2019, MaxMem=   671088640 cpu:               6.5 elap:               0.4
 (Enter /shared/centos7/gaussian/g16/l1102.exe)
 Symmetrizing basis deriv contribution to polar:
 IMax=3 JMax=2 DiffMx= 0.00D+00
 Leave Link 1102 at Mon Mar 11 19:45:38 2019, MaxMem=   671088640 cpu:               0.5 elap:               0.0
 (Enter /shared/centos7/gaussian/g16/l1110.exe)
 Forming Gx(P) for the SCF density, NAtomX=    14.
 Integral derivatives from FoFJK, PRISM(SPDF).
 Do as many integral derivatives as possible in FoFJK.
 G2DrvN: MDV=     671087496.
 G2DrvN: will do    15 centers at a time, making    1 passes.
 Calling FoFCou, ICntrl=  3107 FMM=F I1Cent=   0 AccDes= 0.00D+00.
 FoFJK:  IHMeth= 1 ICntrl=    3107 DoSepK=F KAlg= 0 I1Cent=           0 FoldK=F
 IRaf=         0 NMat=       1 IRICut=       1 DoRegI=T DoRafI=F ISym2E= 0 IDoP0=0 IntGTp=1.
 FoFCou: FMM=F IPFlag=           0 FMFlag=      100000 FMFlg1=           0
         NFxFlg=           0 DoJE=F BraDBF=F KetDBF=F FulRan=T
         wScrn=  0.000000 ICntrl=      3107 IOpCl=  0 I1Cent=           0 NGrid=           0
         NMat0=    1 NMatS0=      1 NMatT0=    0 NMatD0=    1 NMtDS0=    0 NMtDT0=    0
 Symmetry not used in FoFCou.
 End of G2Drv F.D. properties file   721 does not exist.
 End of G2Drv F.D. properties file   722 does not exist.
 End of G2Drv F.D. properties file   788 does not exist.
 Leave Link 1110 at Mon Mar 11 19:46:30 2019, MaxMem=   671088640 cpu:            1034.9 elap:              51.8
 (Enter /shared/centos7/gaussian/g16/l1002.exe)
 Minotr:  Closed shell wavefunction.
          IDoAtm=11111111111111
          Direct CPHF calculation.
          Differentiating once with respect to nuclear coordinates.
          Requested convergence is 1.0D-08 RMS, and 1.0D-07 maximum.
          Secondary convergence is 1.0D-12 RMS, and 1.0D-12 maximum.
          NewPWx=T KeepS1=F KeepF1=F KeepIn=T MapXYZ=F SortEE=F KeepMc=T.
         4271 words used for storage of precomputed grid.
 Two-electron integrals replicated using symmetry.
          MDV=     671088640 using IRadAn=       1.
          Solving linear equations simultaneously, MaxMat=     380.
 FoF2E skips out because all densities are zero.
 CalDSu exits because no D1Ps are significant.
 FoFJK:  IHMeth= 1 ICntrl=       0 DoSepK=F KAlg= 0 I1Cent=           0 FoldK=F
 IRaf= 940000000 NMat=      42 IRICut=     105 DoRegI=T DoRafI=T ISym2E= 2 IDoP0=3 IntGTp=3.
 FoFCou: FMM=F IPFlag=           0 FMFlag=      100000 FMFlg1=           0
         NFxFlg=           0 DoJE=F BraDBF=F KetDBF=F FulRan=T
         wScrn=  0.000000 ICntrl=         0 IOpCl=  0 I1Cent=           0 NGrid=           0
         NMat0=   42 NMatS0=     42 NMatT0=    0 NMatD0=   42 NMtDS0=    0 NMtDT0=    0
 Integrals replicated using symmetry in FoFCou.
 Raff kept on since  92.59% of shell-pairs survive, threshold=   0.20 IRatSp=93.
          There are    45 degrees of freedom in the 1st order CPHF.  IDoFFX=6 NUNeed=     0.
     39 vectors produced by pass  0 Test12= 1.34D-14 2.22D-09 XBig12= 7.91D-02 6.87D-02.
 AX will form    39 AO Fock derivatives at one time.
     39 vectors produced by pass  1 Test12= 1.34D-14 2.22D-09 XBig12= 8.13D-03 3.44D-02.
     39 vectors produced by pass  2 Test12= 1.34D-14 2.22D-09 XBig12= 2.21D-04 2.77D-03.
     39 vectors produced by pass  3 Test12= 1.34D-14 2.22D-09 XBig12= 1.85D-06 2.72D-04.
     39 vectors produced by pass  4 Test12= 1.34D-14 2.22D-09 XBig12= 1.63D-08 1.68D-05.
     39 vectors produced by pass  5 Test12= 1.34D-14 2.22D-09 XBig12= 9.28D-11 1.16D-06.
     23 vectors produced by pass  6 Test12= 1.34D-14 2.22D-09 XBig12= 3.50D-13 7.98D-08.
      4 vectors produced by pass  7 Test12= 1.34D-14 2.22D-09 XBig12= 1.46D-15 5.22D-09.
 InvSVY:  IOpt=1 It=  1 EMax= 2.55D-15
 Solved reduced A of dimension   261 with    39 vectors.
 End of Minotr F.D. properties file   721 does not exist.
 End of Minotr F.D. properties file   722 does not exist.
 End of Minotr F.D. properties file   788 does not exist.
 Leave Link 1002 at Mon Mar 11 19:47:43 2019, MaxMem=   671088640 cpu:            1453.5 elap:              72.7
 (Enter /shared/centos7/gaussian/g16/l601.exe)
 Copying SCF densities to generalized density rwf, IOpCl= 0 IROHF=0.

 **********************************************************************

            Population analysis using the SCF density.

 **********************************************************************

 Orbital symmetries:
       Occupied  (A) (A) (A) (A) (A) (A) (A) (A) (A) (A) (A) (A)
                 (A) (A) (A) (A) (A) (A) (A) (A) (A) (A) (A) (A)
       Virtual   (A) (A) (A) (A) (A) (A) (A) (A) (A) (A) (A) (A)
                 (A) (A) (A) (A) (A) (A) (A) (A) (A) (A) (A) (A)
                 (A) (A) (A) (A) (A) (A) (A) (A) (A) (A) (A) (A)
                 (A) (A) (A) (A) (A) (A) (A) (A) (A) (A) (A) (A)
                 (A) (A) (A) (A) (A) (A) (A) (A) (A) (A) (A) (A)
                 (A) (A) (A) (A) (A) (A) (A) (A) (A) (A) (A) (A)
                 (A) (A) (A) (A) (A) (A) (A) (A) (A) (A) (A) (A)
                 (A) (A) (A) (A) (A) (A) (A) (A) (A) (A) (A) (A)
                 (A) (A) (A) (A) (A) (A) (A) (A) (A) (A) (A) (A)
                 (A) (A) (A) (A) (A) (A) (A) (A) (A) (A) (A) (A)
                 (A) (A) (A) (A) (A) (A) (A) (A) (A) (A) (A) (A)
                 (A) (A) (A) (A) (A) (A) (A) (A) (A) (A) (A) (A)
                 (A) (A) (A) (A) (A) (A) (A) (A) (A) (A) (A) (A)
                 (A) (A) (A) (A) (A) (A) (A) (A) (A) (A) (A) (A)
                 (A) (A) (A) (A) (A) (A) (A) (A) (A) (A) (A) (A)
                 (A) (A) (A) (A) (A) (A) (A) (A) (A) (A) (A) (A)
                 (A) (A) (A) (A) (A) (A) (A) (A) (A) (A) (A) (A)
                 (A) (A) (A) (A) (A) (A) (A) (A) (A) (A) (A) (A)
                 (A) (A) (A) (A) (A) (A) (A) (A) (A) (A) (A) (A)
                 (A) (A) (A) (A) (A) (A) (A) (A) (A) (A) (A) (A)
                 (A) (A) (A) (A) (A) (A) (A) (A) (A) (A) (A) (A)
 The electronic state is 1-A.
 Alpha  occ. eigenvalues --  -19.66864 -19.61279 -10.66806 -10.58922 -10.55063
 Alpha  occ. eigenvalues --  -10.52800  -1.23856  -1.14353  -0.89349  -0.82387
 Alpha  occ. eigenvalues --   -0.73252  -0.64607  -0.58973  -0.58005  -0.56227
 Alpha  occ. eigenvalues --   -0.52482  -0.50589  -0.46018  -0.44640  -0.44048
 Alpha  occ. eigenvalues --   -0.42653  -0.41442  -0.37843  -0.35594
 Alpha virt. eigenvalues --    0.01131   0.02431   0.03677   0.03960   0.05005
 Alpha virt. eigenvalues --    0.05090   0.05753   0.06577   0.08384   0.08734
 Alpha virt. eigenvalues --    0.09016   0.09734   0.10542   0.12387   0.14286
 Alpha virt. eigenvalues --    0.15262   0.17996   0.19119   0.20012   0.20068
 Alpha virt. eigenvalues --    0.21602   0.22426   0.23004   0.23324   0.24349
 Alpha virt. eigenvalues --    0.26440   0.27718   0.28357   0.28444   0.29376
 Alpha virt. eigenvalues --    0.30486   0.32095   0.33755   0.34550   0.36719
 Alpha virt. eigenvalues --    0.38665   0.39658   0.41468   0.44371   0.47140
 Alpha virt. eigenvalues --    0.47821   0.49382   0.50520   0.51628   0.53836
 Alpha virt. eigenvalues --    0.54465   0.55500   0.56197   0.56570   0.57699
 Alpha virt. eigenvalues --    0.61099   0.61349   0.62389   0.63663   0.66426
 Alpha virt. eigenvalues --    0.67341   0.68335   0.70968   0.71670   0.75389
 Alpha virt. eigenvalues --    0.76859   0.78700   0.80793   0.84058   0.84607
 Alpha virt. eigenvalues --    0.87199   0.89469   0.90646   0.92160   0.92744
 Alpha virt. eigenvalues --    0.98539   1.01188   1.02647   1.05900   1.06009
 Alpha virt. eigenvalues --    1.09543   1.10682   1.12093   1.12929   1.13628
 Alpha virt. eigenvalues --    1.16473   1.17512   1.17626   1.18613   1.21358
 Alpha virt. eigenvalues --    1.22797   1.23642   1.24525   1.24526   1.24705
 Alpha virt. eigenvalues --    1.28861   1.30112   1.32922   1.34374   1.35143
 Alpha virt. eigenvalues --    1.39603   1.41985   1.43102   1.43795   1.45847
 Alpha virt. eigenvalues --    1.46727   1.47133   1.49427   1.53067   1.55160
 Alpha virt. eigenvalues --    1.58088   1.59775   1.60736   1.63247   1.65487
 Alpha virt. eigenvalues --    1.67533   1.70031   1.72868   1.77335   1.83305
 Alpha virt. eigenvalues --    1.85140   1.93470   2.06418   2.09906   2.12304
 Alpha virt. eigenvalues --    2.27991   2.35032   2.39289   2.40186   2.49282
 Alpha virt. eigenvalues --    2.52655   2.58107   2.59919   2.66152   2.67914
 Alpha virt. eigenvalues --    2.74598   2.75487   2.79974   2.81265   2.83996
 Alpha virt. eigenvalues --    2.84068   2.84572   2.94351   2.96122   2.98581
 Alpha virt. eigenvalues --    3.00951   3.02277   3.03394   3.07775   3.10533
 Alpha virt. eigenvalues --    3.11399   3.13086   3.13791   3.15341   3.18304
 Alpha virt. eigenvalues --    3.19895   3.24957   3.26040   3.26850   3.28919
 Alpha virt. eigenvalues --    3.31999   3.34992   3.40342   3.40652   3.43068
 Alpha virt. eigenvalues --    3.45079   3.49525   3.51629   3.51718   3.52308
 Alpha virt. eigenvalues --    3.52966   3.56317   3.57860   3.61177   3.61304
 Alpha virt. eigenvalues --    3.67458   3.67958   3.72392   3.77529   3.82849
 Alpha virt. eigenvalues --    3.83163   3.86961   3.87392   3.91245   3.94899
 Alpha virt. eigenvalues --    3.95484   3.97410   4.00604   4.01696   4.02026
 Alpha virt. eigenvalues --    4.06040   4.12702   4.13914   4.17716   4.18664
 Alpha virt. eigenvalues --    4.26510   4.26859   4.28828   4.30996   4.31017
 Alpha virt. eigenvalues --    4.32104   4.32633   4.34826   4.36443   4.43096
 Alpha virt. eigenvalues --    4.48241   4.49804   4.51361   4.54089   4.55665
 Alpha virt. eigenvalues --    4.60858   4.72684   4.91931   4.93145   5.08308
 Alpha virt. eigenvalues --    5.11823   5.14951   5.20612   5.20814   5.23681
 Alpha virt. eigenvalues --    5.27478   5.37357   5.40972   5.45126   5.50689
 Alpha virt. eigenvalues --    5.53213   5.56706   5.57334   5.58222   5.65217
 Alpha virt. eigenvalues --    5.67244   5.69380   5.74852   5.80629   6.00291
 Alpha virt. eigenvalues --    6.09630   6.38784   6.45962   6.69865   6.83660
 Alpha virt. eigenvalues --    6.96610   7.06543   7.11743   7.17800   7.19469
 Alpha virt. eigenvalues --    7.25786   7.31779   7.55376   7.67683   7.77757
 Alpha virt. eigenvalues --    7.83484  24.34337  24.43852  24.46702  24.86032
 Alpha virt. eigenvalues --   50.17733  50.31651
          Condensed to atoms (all electrons):
               1          2          3          4          5          6
     1  O    8.214803  -0.084625  -0.218002   0.008870   0.151226   0.216932
     2  O   -0.084625   8.213365   0.001397  -0.029710  -0.035571   0.348857
     3  C   -0.218002   0.001397   5.666628   0.094555  -0.061846  -0.133551
     4  C    0.008870  -0.029710   0.094555   5.176204  -0.013362   0.077215
     5  C    0.151226  -0.035571  -0.061846  -0.013362   4.967609  -0.107665
     6  C    0.216932   0.348857  -0.133551   0.077215  -0.107665   5.443027
     7  H    0.002455   0.000622   0.450856  -0.038743   0.001431  -0.048700
     8  H    0.002455   0.000623   0.450857  -0.038743   0.001431  -0.048700
     9  H    0.000084  -0.001578  -0.024636   0.412767  -0.000210  -0.006992
    10  H   -0.000608   0.001223  -0.078179   0.424389   0.000452   0.038413
    11  H    0.000084  -0.001578  -0.024636   0.412767  -0.000210  -0.006992
    12  H   -0.059014   0.003701   0.002346   0.000790   0.419178   0.017895
    13  H   -0.035578  -0.004396  -0.001458  -0.000948   0.431123   0.001857
    14  H   -0.035578  -0.004396  -0.001458  -0.000948   0.431123   0.001857
               7          8          9         10         11         12
     1  O    0.002455   0.002455   0.000084  -0.000608   0.000084  -0.059014
     2  O    0.000622   0.000623  -0.001578   0.001223  -0.001578   0.003701
     3  C    0.450856   0.450857  -0.024636  -0.078179  -0.024636   0.002346
     4  C   -0.038743  -0.038743   0.412767   0.424389   0.412767   0.000790
     5  C    0.001431   0.001431  -0.000210   0.000452  -0.000210   0.419178
     6  C   -0.048700  -0.048700  -0.006992   0.038413  -0.006992   0.017895
     7  H    0.517206  -0.037196   0.005409  -0.003517  -0.006671   0.000009
     8  H   -0.037196   0.517206  -0.006671  -0.003517   0.005409   0.000009
     9  H    0.005409  -0.006671   0.528099  -0.025290  -0.031323  -0.000002
    10  H   -0.003517  -0.003517  -0.025290   0.538139  -0.025290  -0.000000
    11  H   -0.006671   0.005409  -0.031323  -0.025290   0.528099  -0.000002
    12  H    0.000009   0.000009  -0.000002  -0.000000  -0.000002   0.533251
    13  H    0.000137  -0.000094   0.000012  -0.000001  -0.000006  -0.025077
    14  H   -0.000094   0.000137  -0.000006  -0.000001   0.000012  -0.025077
              13         14
     1  O   -0.035578  -0.035578
     2  O   -0.004396  -0.004396
     3  C   -0.001458  -0.001458
     4  C   -0.000948  -0.000948
     5  C    0.431123   0.431123
     6  C    0.001857   0.001857
     7  H    0.000137  -0.000094
     8  H   -0.000094   0.000137
     9  H    0.000012  -0.000006
    10  H   -0.000001  -0.000001
    11  H   -0.000006   0.000012
    12  H   -0.025077  -0.025077
    13  H    0.533186  -0.037521
    14  H   -0.037521   0.533186
 Mulliken charges:
               1
     1  O   -0.163503
     2  O   -0.407934
     3  C   -0.122874
     4  C   -0.485103
     5  C   -0.184709
     6  C    0.206547
     7  H    0.156796
     8  H    0.156796
     9  H    0.150337
    10  H    0.133789
    11  H    0.150337
    12  H    0.131995
    13  H    0.138764
    14  H    0.138764
 Sum of Mulliken charges =  -0.00000
 Mulliken charges with hydrogens summed into heavy atoms:
               1
     1  O   -0.163503
     2  O   -0.407934
     3  C    0.190718
     4  C   -0.050640
     5  C    0.224813
     6  C    0.206547
 APT charges:
               1
     1  O   -0.038120
     2  O   -0.401935
     3  C   -0.607962
     4  C   -1.314564
     5  C   -1.242519
     6  C    0.318047
     7  H    0.381585
     8  H    0.381585
     9  H    0.327564
    10  H    0.579113
    11  H    0.327564
    12  H    0.576269
    13  H    0.356688
    14  H    0.356688
 Sum of APT charges =  -0.00000
 APT charges with hydrogens summed into heavy atoms:
               1
     1  O   -0.038120
     2  O   -0.401935
     3  C    0.155207
     4  C   -0.080324
     5  C    0.047125
     6  C    0.318047
 Electronic spatial extent (au):  <R**2>=            688.1343
 Charge=             -0.0000 electrons
 Dipole moment (field-independent basis, Debye):
    X=              0.3634    Y=             -1.6693    Z=             -0.0000  Tot=              1.7084
 Quadrupole moment (field-independent basis, Debye-Ang):
   XX=            -30.8399   YY=            -41.3455   ZZ=            -35.8976
   XY=              1.4919   XZ=              0.0000   YZ=              0.0000
 Traceless Quadrupole moment (field-independent basis, Debye-Ang):
   XX=              5.1878   YY=             -5.3179   ZZ=              0.1301
   XY=              1.4919   XZ=              0.0000   YZ=              0.0000
 Octapole moment (field-independent basis, Debye-Ang**2):
  XXX=             19.2490  YYY=             -3.9887  ZZZ=             -0.0000  XYY=              0.1619
  XXY=             -0.2952  XXZ=             -0.0000  XZZ=              1.9761  YZZ=              0.8850
  YYZ=              0.0000  XYZ=             -0.0000
 Hexadecapole moment (field-independent basis, Debye-Ang**3):
 XXXX=           -660.1653 YYYY=           -165.1711 ZZZZ=            -54.7744 XXXY=             -2.8549
 XXXZ=              0.0000 YYYX=             -1.1329 YYYZ=             -0.0000 ZZZX=              0.0000
 ZZZY=             -0.0000 XXYY=           -139.3929 XXZZ=           -125.5855 YYZZ=            -33.0505
 XXYZ=             -0.0000 YYXZ=              0.0000 ZZXY=              0.7654
 N-N= 2.465133791555D+02 E-N=-1.212779277656D+03  KE= 3.065735887955D+02
  Exact polarizability:   0.000   0.000   0.000   0.000   0.000   0.000
 Approx polarizability:  63.729  -1.129  68.878   0.000   0.000  55.052
 No NMR shielding tensors so no spin-rotation constants.
 Leave Link  601 at Mon Mar 11 19:47:43 2019, MaxMem=   671088640 cpu:               4.6 elap:               0.3
 (Enter /shared/centos7/gaussian/g16/l701.exe)
 ... and contract with generalized density number  0.
 Compute integral second derivatives.
 Leave Link  701 at Mon Mar 11 19:47:44 2019, MaxMem=   671088640 cpu:               6.9 elap:               0.4
 (Enter /shared/centos7/gaussian/g16/l702.exe)
 L702 exits ... SP integral derivatives will be done elsewhere.
 Leave Link  702 at Mon Mar 11 19:47:44 2019, MaxMem=   671088640 cpu:               0.3 elap:               0.0
 (Enter /shared/centos7/gaussian/g16/l703.exe)
 Integral derivatives from FoFJK, PRISM(SPDF).
 Compute integral second derivatives, UseDBF=F ICtDFT=           0.
 Calling FoFJK, ICntrl=    100147 FMM=F ISym2X=0 I1Cent= 0 IOpClX= 0 NMat=1 NMatS=1 NMatT=0.
 FoFJK:  IHMeth= 1 ICntrl=  100147 DoSepK=F KAlg= 0 I1Cent=           0 FoldK=F
 IRaf=         0 NMat=       1 IRICut=       1 DoRegI=T DoRafI=F ISym2E= 0 IDoP0=0 IntGTp=1.
 FoFCou: FMM=F IPFlag=           0 FMFlag=      100000 FMFlg1=         800
         NFxFlg=           0 DoJE=F BraDBF=F KetDBF=F FulRan=T
         wScrn=  0.000000 ICntrl=    100147 IOpCl=  0 I1Cent=           0 NGrid=           0
         NMat0=    1 NMatS0=      1 NMatT0=    0 NMatD0=    1 NMtDS0=    0 NMtDT0=    0
 Symmetry not used in FoFCou.
 Leave Link  703 at Mon Mar 11 19:49:00 2019, MaxMem=   671088640 cpu:            1524.1 elap:              76.2
 (Enter /shared/centos7/gaussian/g16/l716.exe)
 Dipole        = 1.42991442D-01-6.56757120D-01-3.00369765D-07
 Polarizability= 0.00000000D+00 0.00000000D+00 0.00000000D+00
                 0.00000000D+00 0.00000000D+00 0.00000000D+00
 ***** Axes restored to original set *****
 -------------------------------------------------------------------
 Center     Atomic                   Forces (Hartrees/Bohr)
 Number     Number              X              Y              Z
 -------------------------------------------------------------------
      1        8           0.000000114    0.000000418   -0.000000011
      2        8          -0.000000361    0.000000183    0.000000000
      3        6           0.000000130   -0.000000271    0.000000016
      4        6          -0.000000052   -0.000000635   -0.000000005
      5        6          -0.000000081    0.000000642    0.000000004
      6        6           0.000000055   -0.000000130    0.000000007
      7        1           0.000000347   -0.000000250    0.000000006
      8        1           0.000000344   -0.000000241   -0.000000016
      9        1          -0.000000226   -0.000000595    0.000000012
     10        1           0.000000125   -0.000000825   -0.000000001
     11        1          -0.000000228   -0.000000599   -0.000000011
     12        1           0.000000195    0.000000879    0.000000000
     13        1          -0.000000180    0.000000713   -0.000000015
     14        1          -0.000000182    0.000000711    0.000000014
 -------------------------------------------------------------------
 Cartesian Forces:  Max     0.000000879 RMS     0.000000347
 FormGI is forming the generalized inverse of G from B-inverse, IUseBI=4.
 Leave Link  716 at Mon Mar 11 19:49:00 2019, MaxMem=   671088640 cpu:               0.5 elap:               0.0
 (Enter /shared/centos7/gaussian/g16/l103.exe)

 GradGradGradGradGradGradGradGradGradGradGradGradGradGradGradGradGradGrad
 Berny optimization.
 Red2BG is reusing G-inverse.
 Internal  Forces:  Max     0.000000108 RMS     0.000000024
 Search for a local minimum.
 Step number   1 out of a maximum of   65 on scan point     1 out of    37
 All quantities printed in internal units (Hartrees-Bohrs-Radians)
 RMS Force = .23806D-07 SwitMx=.10000D-02 MixMth= 2
 Mixed Optimization -- En-DIIS/RFO-DIIS
 Second derivative matrix not updated -- analytic derivatives used.
 ITU=  0
     Eigenvalues ---    0.00204   0.00363   0.02060   0.02255   0.03750
     Eigenvalues ---    0.04434   0.04464   0.04709   0.06832   0.08403
     Eigenvalues ---    0.08528   0.10623   0.12379   0.13318   0.14594
     Eigenvalues ---    0.16148   0.18874   0.18881   0.19925   0.22063
     Eigenvalues ---    0.25281   0.26795   0.31669   0.33691   0.34450
     Eigenvalues ---    0.34464   0.34524   0.34557   0.34835   0.35407
     Eigenvalues ---    0.35544   0.36780   0.39488   0.48906   0.92058
     Eigenvalues --- 1000.000001000.000001000.000001000.000001000.00000
     Eigenvalues --- 1000.000001000.000001000.000001000.000001000.00000
     Eigenvalues --- 1000.000001000.000001000.000001000.000001000.00000
     Eigenvalues --- 1000.000001000.000001000.000001000.000001000.00000
 RFO step:  Lambda= 0.00000000D+00 EMin= 2.03807685D-03
 Linear search not attempted -- first point.
 Iteration  1 RMS(Cart)=  0.00000021 RMS(Int)=  0.00000000
 Iteration  1 RMS(Cart)=  0.00000000 RMS(Int)=  0.00000000
 ITry= 1 IFail=0 DXMaxC= 5.33D-07 DCOld= 1.00D+10 DXMaxT= 3.00D-01 DXLimC= 3.00D+00 Rises=F
 Variable       Old X    -DE/DX   Delta X   Delta X   Delta X     New X
                                 (Linear)    (Quad)   (Total)
    R1        2.69330  -0.00000   0.00000  -0.00000  -0.00000   2.69330
    R2        2.53553  -0.00000   0.00000  -0.00000  -0.00000   2.53553
    R3        2.26751   0.00000   0.00000   0.00000   0.00000   2.26751
    R4        2.87041  -0.00000   0.00000  -0.00000  -0.00000   2.87041
    R5        2.84730   0.00000   0.00000   0.00000   0.00000   2.84730
    R6        2.06245  -0.00000   0.00000  -0.00000  -0.00000   2.06245
    R7        2.06245  -0.00000   0.00000  -0.00000  -0.00000   2.06245
    R8        2.05639   0.00000   0.00000   0.00000   0.00000   2.05639
    R9        2.05656  -0.00000   0.00000  -0.00000  -0.00000   2.05656
   R10        2.05639   0.00000   0.00000   0.00000   0.00000   2.05639
   R11        2.04993   0.00000   0.00000   0.00000   0.00000   2.04993
   R12        2.05648   0.00000   0.00000   0.00000   0.00000   2.05648
   R13        2.05648   0.00000   0.00000   0.00000   0.00000   2.05648
    A1        2.01295  -0.00000   0.00000  -0.00000  -0.00000   2.01295
    A2        1.95939   0.00000   0.00000   0.00000   0.00000   1.95939
    A3        1.95185  -0.00000   0.00000  -0.00000  -0.00000   1.95185
    A4        1.95185   0.00000   0.00000   0.00000   0.00000   1.95185
    A5        1.87412  -0.00000   0.00000  -0.00000  -0.00000   1.87412
    A6        1.87412  -0.00000   0.00000   0.00000   0.00000   1.87412
    A7        1.84637   0.00000   0.00000  -0.00000  -0.00000   1.84637
    A8        1.93275   0.00000   0.00000   0.00000   0.00000   1.93275
    A9        1.92922  -0.00000   0.00000  -0.00000  -0.00000   1.92922
   A10        1.93275   0.00000   0.00000   0.00000   0.00000   1.93275
   A11        1.89652   0.00000   0.00000   0.00000   0.00000   1.89652
   A12        1.87464  -0.00000   0.00000  -0.00000  -0.00000   1.87464
   A13        1.89652  -0.00000   0.00000  -0.00000  -0.00000   1.89652
   A14        1.85011   0.00000   0.00000   0.00000   0.00000   1.85011
   A15        1.92635   0.00000   0.00000   0.00000   0.00000   1.92635
   A16        1.92635   0.00000   0.00000   0.00000   0.00000   1.92635
   A17        1.93056  -0.00000   0.00000  -0.00000  -0.00000   1.93056
   A18        1.93056  -0.00000   0.00000  -0.00000  -0.00000   1.93056
   A19        1.89987  -0.00000   0.00000  -0.00000  -0.00000   1.89987
   A20        2.14862  -0.00000   0.00000  -0.00000  -0.00000   2.14862
   A21        1.94408   0.00000   0.00000   0.00000   0.00000   1.94408
   A22        2.19049  -0.00000   0.00000  -0.00000  -0.00000   2.19049
    D1       -3.14159  -0.00000   0.00000  -0.00000  -0.00000  -3.14159
    D2       -1.05044   0.00000   0.00000  -0.00000  -0.00000  -1.05044
    D3        1.05044  -0.00000   0.00000  -0.00000  -0.00000   1.05044
    D4       -0.00000   0.00000   0.00000   0.00000   0.00000  -0.00000
    D5        3.14159   0.00000   0.00000   0.00000   0.00000   3.14159
    D6       -1.03884  -0.00000   0.00000   0.00000   0.00000  -1.03884
    D7        3.14159  -0.00000   0.00000   0.00000   0.00000   3.14159
    D8        1.03884   0.00000   0.00000   0.00000   0.00000   1.03884
    D9        3.13636   0.00000   0.00000   0.00000   0.00000   3.13636
   D10        1.03361   0.00000   0.00000   0.00000   0.00000   1.03361
   D11       -1.06915   0.00000   0.00000   0.00000   0.00000  -1.06915
   D12        1.06915  -0.00000   0.00000   0.00000   0.00000   1.06915
   D13       -1.03361  -0.00000   0.00000   0.00000   0.00000  -1.03361
   D14       -3.13636   0.00000   0.00000   0.00000   0.00000  -3.13636
   D15        3.14159   0.00000   0.00000   0.00000   0.00000   3.14159
   D16       -0.00000   0.00000   0.00000   0.00000   0.00000  -0.00000
   D17       -0.98936   0.00000   0.00000   0.00000   0.00000  -0.98936
   D18        2.15223   0.00000   0.00000   0.00000   0.00000   2.15223
   D19        0.98936   0.00000   0.00000   0.00000   0.00000   0.98936
   D20       -2.15223   0.00000   0.00000   0.00000  -0.00000  -2.15223
         Item               Value     Threshold  Converged?
 Maximum Force            0.000000     0.000450     YES
 RMS     Force            0.000000     0.000300     YES
 Maximum Displacement     0.000001     0.001800     YES
 RMS     Displacement     0.000000     0.001200     YES
 Predicted change in Energy=-4.425571D-14
 Optimization completed.
    -- Stationary point found.
                           ----------------------------
                           !   Optimized Parameters   !
                           ! (Angstroms and Degrees)  !
 --------------------------                            --------------------------
 ! Name  Definition              Value          Derivative Info.                !
 --------------------------------------------------------------------------------
 ! R1    R(1,5)                  1.4252         -DE/DX =    0.0                 !
 ! R2    R(1,6)                  1.3417         -DE/DX =    0.0                 !
 ! R3    R(2,6)                  1.1999         -DE/DX =    0.0                 !
 ! R4    R(3,4)                  1.519          -DE/DX =    0.0                 !
 ! R5    R(3,6)                  1.5067         -DE/DX =    0.0                 !
 ! R6    R(3,7)                  1.0914         -DE/DX =    0.0                 !
 ! R7    R(3,8)                  1.0914         -DE/DX =    0.0                 !
 ! R8    R(4,9)                  1.0882         -DE/DX =    0.0                 !
 ! R9    R(4,10)                 1.0883         -DE/DX =    0.0                 !
 ! R10   R(4,11)                 1.0882         -DE/DX =    0.0                 !
 ! R11   R(5,12)                 1.0848         -DE/DX =    0.0                 !
 ! R12   R(5,13)                 1.0882         -DE/DX =    0.0                 !
 ! R13   R(5,14)                 1.0882         -DE/DX =    0.0                 !
 ! A1    A(5,1,6)              115.3337         -DE/DX =    0.0                 !
 ! A2    A(4,3,6)              112.265          -DE/DX =    0.0                 !
 ! A3    A(4,3,7)              111.8328         -DE/DX =    0.0                 !
 ! A4    A(4,3,8)              111.8328         -DE/DX =    0.0                 !
 ! A5    A(6,3,7)              107.379          -DE/DX =    0.0                 !
 ! A6    A(6,3,8)              107.379          -DE/DX =    0.0                 !
 ! A7    A(7,3,8)              105.7892         -DE/DX =    0.0                 !
 ! A8    A(3,4,9)              110.7385         -DE/DX =    0.0                 !
 ! A9    A(3,4,10)             110.5363         -DE/DX =    0.0                 !
 ! A10   A(3,4,11)             110.7385         -DE/DX =    0.0                 !
 ! A11   A(9,4,10)             108.6625         -DE/DX =    0.0                 !
 ! A12   A(9,4,11)             107.409          -DE/DX =    0.0                 !
 ! A13   A(10,4,11)            108.6625         -DE/DX =    0.0                 !
 ! A14   A(1,5,12)             106.0037         -DE/DX =    0.0                 !
 ! A15   A(1,5,13)             110.3716         -DE/DX =    0.0                 !
 ! A16   A(1,5,14)             110.3716         -DE/DX =    0.0                 !
 ! A17   A(12,5,13)            110.6129         -DE/DX =    0.0                 !
 ! A18   A(12,5,14)            110.6129         -DE/DX =    0.0                 !
 ! A19   A(13,5,14)            108.8545         -DE/DX =    0.0                 !
 ! A20   A(1,6,2)              123.1066         -DE/DX =    0.0                 !
 ! A21   A(1,6,3)              111.3877         -DE/DX =    0.0                 !
 ! A22   A(2,6,3)              125.5057         -DE/DX =    0.0                 !
 ! D1    D(6,1,5,12)          -180.0            -DE/DX =    0.0                 !
 ! D2    D(6,1,5,13)           -60.186          -DE/DX =    0.0                 !
 ! D3    D(6,1,5,14)            60.186          -DE/DX =    0.0                 !
 ! D4    D(5,1,6,2)              0.0            -DE/DX =    0.0                 !
 ! D5    D(5,1,6,3)            180.0            -DE/DX =    0.0                 !
 ! D6    D(6,3,4,9)            -59.521          -DE/DX =    0.0                 !
 ! D7    D(6,3,4,10)           180.0            -DE/DX =    0.0                 !
 ! D8    D(6,3,4,11)            59.521          -DE/DX =    0.0                 !
 ! D9    D(7,3,4,9)            179.7004         -DE/DX =    0.0                 !
 ! D10   D(7,3,4,10)            59.2214         -DE/DX =    0.0                 !
 ! D11   D(7,3,4,11)           -61.2576         -DE/DX =    0.0                 !
 ! D12   D(8,3,4,9)             61.2575         -DE/DX =    0.0                 !
 ! D13   D(8,3,4,10)           -59.2214         -DE/DX =    0.0                 !
 ! D14   D(8,3,4,11)          -179.7004         -DE/DX =    0.0                 !
 ! D15   D(4,3,6,1)            179.9998         -DE/DX =    0.0                 !
 ! D16   D(4,3,6,2)             -0.0002         -DE/DX =    0.0                 !
 ! D17   D(7,3,6,1)            -56.6864         -DE/DX =    0.0                 !
 ! D18   D(7,3,6,2)            123.3136         -DE/DX =    0.0                 !
 ! D19   D(8,3,6,1)             56.6861         -DE/DX =    0.0                 !
 ! D20   D(8,3,6,2)           -123.3139         -DE/DX =    0.0                 !
 --------------------------------------------------------------------------------
 Lowest energy point so far.  Saving SCF results.
 Iteration  1 RMS(Cart)=  0.01573870 RMS(Int)=  0.01744356
 Iteration  2 RMS(Cart)=  0.00056226 RMS(Int)=  0.01743992
 Iteration  3 RMS(Cart)=  0.00001813 RMS(Int)=  0.01743992
 Iteration  4 RMS(Cart)=  0.00000081 RMS(Int)=  0.01743992
 Iteration  1 RMS(Cart)=  0.00869801 RMS(Int)=  0.00952662
 Iteration  2 RMS(Cart)=  0.00477485 RMS(Int)=  0.01063236
 Iteration  3 RMS(Cart)=  0.00260446 RMS(Int)=  0.01200772
 Iteration  4 RMS(Cart)=  0.00141563 RMS(Int)=  0.01291199
 Iteration  5 RMS(Cart)=  0.00076799 RMS(Int)=  0.01343858
 Iteration  6 RMS(Cart)=  0.00041621 RMS(Int)=  0.01373319
 Iteration  7 RMS(Cart)=  0.00022543 RMS(Int)=  0.01389528
 Iteration  8 RMS(Cart)=  0.00012207 RMS(Int)=  0.01398375
 Iteration  9 RMS(Cart)=  0.00006608 RMS(Int)=  0.01403185
 Iteration 10 RMS(Cart)=  0.00003577 RMS(Int)=  0.01405795
 Iteration 11 RMS(Cart)=  0.00001936 RMS(Int)=  0.01407209
 Iteration 12 RMS(Cart)=  0.00001048 RMS(Int)=  0.01407975
 Iteration 13 RMS(Cart)=  0.00000567 RMS(Int)=  0.01408390
 Iteration 14 RMS(Cart)=  0.00000307 RMS(Int)=  0.01408614
 Iteration 15 RMS(Cart)=  0.00000166 RMS(Int)=  0.01408736
 Iteration 16 RMS(Cart)=  0.00000090 RMS(Int)=  0.01408802
 GradGradGradGradGradGradGradGradGradGradGradGradGradGradGradGradGradGrad

 Leave Link  103 at Mon Mar 11 19:49:00 2019, MaxMem=   671088640 cpu:               1.0 elap:               0.1
 (Enter /shared/centos7/gaussian/g16/l202.exe)
                          Input orientation:                          
 ---------------------------------------------------------------------
 Center     Atomic      Atomic             Coordinates (Angstroms)
 Number     Number       Type             X           Y           Z
 ---------------------------------------------------------------------
      1          8           0        1.147656   -0.702158   -0.037949
      2          8           0        0.092043    1.265408    0.037069
      3          6           0       -1.205082   -0.765922   -0.015530
      4          6           0       -2.441258    0.116665   -0.001265
      5          6           0        2.386419    0.001677    0.001023
      6          6           0        0.049298    0.068487   -0.039581
      7          1           0       -1.203001   -1.433104   -0.879333
      8          1           0       -1.216933   -1.364685    0.897263
      9          1           0       -2.434662    0.775121    0.865147
     10          1           0       -3.343752   -0.490799    0.029840
     11          1           0       -2.475550    0.746085   -0.888315
     12          1           0        3.161710   -0.757042   -0.002894
     13          1           0        2.480983    0.650538   -0.867532
     14          1           0        2.449015    0.608789    0.902062
 ---------------------------------------------------------------------
                    Distance matrix (angstroms):
                    1          2          3          4          5
     1  O    0.000000
     2  O    2.234114   0.000000
     3  C    2.353709   2.410726   0.000000
     4  C    3.681321   2.781851   1.518978   0.000000
     5  C    1.425285   2.619634   3.672651   4.829047   0.000000
     6  C    1.341748   1.200134   1.506747   2.491317   2.338428
     7  H    2.601499   3.130319   1.091463   2.169348   3.964538
     8  H    2.627707   3.061167   1.091718   2.121490   3.956557
     9  H    3.978812   2.703763   2.159230   1.088245   4.958604
    10  H    4.496889   3.858626   2.156770   1.088335   5.751367
    11  H    3.993515   2.778231   2.159169   1.088212   4.998381
    12  H    2.015106   3.676243   4.366819   5.670680   1.084779
    13  H    2.072620   2.627433   4.039720   5.026320   1.088278
    14  H    2.072616   2.595126   4.010515   4.997295   1.088289
                    6          7          8          9         10
     6  C    0.000000
     7  H    2.127960   0.000000
     8  H    2.129555   1.777968   0.000000
     9  H    2.736407   3.071882   2.462248   0.000000
    10  H    3.439536   2.509452   2.457530   1.768257   0.000000
    11  H    2.748518   2.523555   3.037723   1.754179   1.768238
    12  H    3.220241   4.502877   4.511322   5.866890   6.510989
    13  H    2.633890   4.232427   4.566203   5.213566   6.002954
    14  H    2.633867   4.547517   4.163388   4.886649   5.960370
                   11         12         13         14
    11  H    0.000000
    12  H    5.901022   0.000000
    13  H    4.957498   1.786692   0.000000
    14  H    5.241722   1.786721   1.770375   0.000000
 Stoichiometry    C4H8O2
 Framework group  C1[X(C4H8O2)]
 Deg. of freedom    36
 Full point group                 C1      NOp   1
 RotChk:  IX=0 Diff= 4.19D-02
 Largest Abelian subgroup         C1      NOp   1
 Largest concise Abelian subgroup C1      NOp   1
                         Standard orientation:                         
 ---------------------------------------------------------------------
 Center     Atomic      Atomic             Coordinates (Angstroms)
 Number     Number       Type             X           Y           Z
 ---------------------------------------------------------------------
      1          8           0        1.143921   -0.701625   -0.009901
      2          8           0        0.094641    1.270691    0.005743
      3          6           0       -1.209041   -0.757112    0.011001
      4          6           0       -2.442345    0.129496   -0.002454
      5          6           0        2.384923   -0.000949    0.010149
      6          6           0        0.048090    0.072179   -0.035760
      7          1           0       -1.207980   -1.449399   -0.832818
      8          1           0       -1.224073   -1.328746    0.940978
      9          1           0       -2.434760    0.813110    0.844240
     10          1           0       -3.346859   -0.473876    0.045192
     11          1           0       -2.473391    0.732679   -0.907668
     12          1           0        3.157736   -0.761953    0.029645
     13          1           0        2.482772    0.621793   -0.876963
     14          1           0        2.448294    0.632179    0.893045
 ---------------------------------------------------------------------
 Rotational constants (GHZ):           9.6711706           2.1795202           1.8400904
 Leave Link  202 at Mon Mar 11 19:49:00 2019, MaxMem=   671088640 cpu:               0.3 elap:               0.0
 (Enter /shared/centos7/gaussian/g16/l301.exe)
 Standard basis: 6-311+G(2df,2p) (5D, 7F)
 Ernie: Thresh=  0.10000D-02 Tol=  0.10000D-05 Strict=F.
 There are   306 symmetry adapted cartesian basis functions of A   symmetry.
 There are   276 symmetry adapted basis functions of A   symmetry.
   276 basis functions,   400 primitive gaussians,   306 cartesian basis functions
    24 alpha electrons       24 beta electrons
       nuclear repulsion energy       246.7948940865 Hartrees.
 IExCor= 4336 DFT=T Ex+Corr=M062X ExCW=0 ScaHFX=  0.540000
 ScaDFX=  1.000000  1.000000  1.000000  1.000000 ScalE2=  1.000000  1.000000
 IRadAn=      5 IRanWt=     -1 IRanGd=            0 ICorTp=0 IEmpDi=  4
 NAtoms=   14 NActive=   14 NUniq=   14 SFac= 1.00D+00 NAtFMM=   60 NAOKFM=F Big=F
 Integral buffers will be    131072 words long.
 Raffenetti 2 integral format.
 Two-electron integral symmetry is turned on.
 Leave Link  301 at Mon Mar 11 19:49:00 2019, MaxMem=   671088640 cpu:               0.9 elap:               0.1
 (Enter /shared/centos7/gaussian/g16/l302.exe)
 NPDir=0 NMtPBC=     1 NCelOv=     1 NCel=       1 NClECP=     1 NCelD=      1
         NCelK=      1 NCelE2=     1 NClLst=     1 CellRange=     0.0.
 One-electron integrals computed using PRISM.
 One-electron integral symmetry used in STVInt
 NBasis=   276 RedAO= T EigKep=  2.87D-05  NBF=   276
 NBsUse=   276 1.00D-06 EigRej= -1.00D+00 NBFU=   276
 Precomputing XC quadrature grid using
 IXCGrd= 4 IRadAn=           5 IRanWt=          -1 IRanGd=           0 AccXCQ= 0.00D+00.
 Generated NRdTot=       0 NPtTot=           0 NUsed=           0 NTot=          32
 NSgBfM=   306   306   306   306   306 MxSgAt=    14 MxSgA2=    14.
 Leave Link  302 at Mon Mar 11 19:49:00 2019, MaxMem=   671088640 cpu:               5.4 elap:               0.3
 (Enter /shared/centos7/gaussian/g16/l303.exe)
 DipDrv:  MaxL=1.
 Leave Link  303 at Mon Mar 11 19:49:00 2019, MaxMem=   671088640 cpu:               0.5 elap:               0.0
 (Enter /shared/centos7/gaussian/g16/l401.exe)
 Initial guess from the checkpoint file:  "/scratch/underkoffler.c/gaussian_scratch/Gau-2093.chk"
 B after Tr=    -0.000000    0.000000   -0.000000
         Rot=    0.999983    0.005893    0.000098    0.000504 Ang=   0.68 deg.
 Guess basis will be translated and rotated to current coordinates.
 JPrj=2 DoOrth=T DoCkMO=T.
 Generating alternative initial guess.
 ExpMin= 4.38D-02 ExpMax= 8.59D+03 ExpMxC= 1.30D+03 IAcc=2 IRadAn=         4 AccDes= 0.00D+00
 Harris functional with IExCor= 1009 and IRadAn=       4 diagonalized for initial guess.
 HarFok:  IExCor= 1009 AccDes= 0.00D+00 IRadAn=         4 IDoV= 1 UseB2=F ITyADJ=14
 ICtDFT=  3500011 ScaDFX=  1.000000  1.000000  1.000000  1.000000
 FoFCou: FMM=F IPFlag=           0 FMFlag=      100000 FMFlg1=           0
         NFxFlg=           0 DoJE=T BraDBF=F KetDBF=T FulRan=T
         wScrn=  0.000000 ICntrl=       500 IOpCl=  0 I1Cent=   200000004 NGrid=           0
         NMat0=    1 NMatS0=      1 NMatT0=    0 NMatD0=    1 NMtDS0=    0 NMtDT0=    0
 Petite list used in FoFCou.
 Harris En= -307.572873989154    
 Leave Link  401 at Mon Mar 11 19:49:01 2019, MaxMem=   671088640 cpu:              18.6 elap:               1.0
 (Enter /shared/centos7/gaussian/g16/l502.exe)
 Integral symmetry usage will be decided dynamically.
 Closed shell SCF:
 Using DIIS extrapolation, IDIIS=  1040.
 NGot=   671088640 LenX=   670892442 LenY=   670798365
 Requested convergence on RMS density matrix=1.00D-08 within 128 cycles.
 Requested convergence on MAX density matrix=1.00D-06.
 Requested convergence on             energy=1.00D-06.
 No special actions if energy rises.
 Fock matrices will be formed incrementally for  20 cycles.

 Cycle   1  Pass 1  IDiag  1:
 FoFJK:  IHMeth= 1 ICntrl=       0 DoSepK=F KAlg= 0 I1Cent=           0 FoldK=F
 IRaf= 960000000 NMat=       1 IRICut=       1 DoRegI=T DoRafI=F ISym2E= 0 IDoP0=0 IntGTp=1.
 FoFCou: FMM=F IPFlag=           0 FMFlag=      100000 FMFlg1=           0
         NFxFlg=           0 DoJE=F BraDBF=F KetDBF=F FulRan=T
         wScrn=  0.000000 ICntrl=         0 IOpCl=  0 I1Cent=           0 NGrid=           0
         NMat0=    1 NMatS0=      1 NMatT0=    0 NMatD0=    1 NMtDS0=    0 NMtDT0=    0
 Symmetry not used in FoFCou.
 E= -307.672074092959    
 DIIS: error= 2.16D-03 at cycle   1 NSaved=   1.
 NSaved= 1 IEnMin= 1 EnMin= -307.672074092959     IErMin= 1 ErrMin= 2.16D-03
 ErrMax= 2.16D-03  0.00D+00 EMaxC= 1.00D-01 BMatC= 2.31D-03 BMatP= 2.31D-03
 IDIUse=3 WtCom= 9.78D-01 WtEn= 2.16D-02
 Coeff-Com:  0.100D+01
 Coeff-En:   0.100D+01
 Coeff:      0.100D+01
 Gap=     0.608 Goal=   None    Shift=    0.000
 GapD=    0.608 DampG=2.000 DampE=1.000 DampFc=2.0000 IDamp=-1.
 RMSDP=3.16D-04 MaxDP=1.49D-02              OVMax= 1.08D-02

 Cycle   2  Pass 1  IDiag  1:
 RMSU=  3.14D-04    CP:  9.95D-01
 E= -307.674949276847     Delta-E=       -0.002875183888 Rises=F Damp=F
 DIIS: error= 4.21D-04 at cycle   2 NSaved=   2.
 NSaved= 2 IEnMin= 2 EnMin= -307.674949276847     IErMin= 2 ErrMin= 4.21D-04
 ErrMax= 4.21D-04  0.00D+00 EMaxC= 1.00D-01 BMatC= 7.49D-05 BMatP= 2.31D-03
 IDIUse=3 WtCom= 9.96D-01 WtEn= 4.21D-03
 Coeff-Com: -0.121D+00 0.112D+01
 Coeff-En:   0.000D+00 0.100D+01
 Coeff:     -0.120D+00 0.112D+01
 Gap=     0.369 Goal=   None    Shift=    0.000
 RMSDP=4.55D-05 MaxDP=1.25D-03 DE=-2.88D-03 OVMax= 3.67D-03

 Cycle   3  Pass 1  IDiag  1:
 RMSU=  3.17D-05    CP:  9.95D-01  1.10D+00
 E= -307.675086419255     Delta-E=       -0.000137142408 Rises=F Damp=F
 DIIS: error= 1.78D-04 at cycle   3 NSaved=   3.
 NSaved= 3 IEnMin= 3 EnMin= -307.675086419255     IErMin= 3 ErrMin= 1.78D-04
 ErrMax= 1.78D-04  0.00D+00 EMaxC= 1.00D-01 BMatC= 1.22D-05 BMatP= 7.49D-05
 IDIUse=3 WtCom= 9.98D-01 WtEn= 1.78D-03
 Coeff-Com: -0.464D-01 0.297D+00 0.749D+00
 Coeff-En:   0.000D+00 0.000D+00 0.100D+01
 Coeff:     -0.463D-01 0.297D+00 0.750D+00
 Gap=     0.368 Goal=   None    Shift=    0.000
 RMSDP=1.30D-05 MaxDP=6.88D-04 DE=-1.37D-04 OVMax= 9.86D-04

 Cycle   4  Pass 1  IDiag  1:
 RMSU=  1.24D-05    CP:  9.95D-01  1.12D+00  9.94D-01
 E= -307.675095523675     Delta-E=       -0.000009104419 Rises=F Damp=F
 DIIS: error= 1.21D-04 at cycle   4 NSaved=   4.
 NSaved= 4 IEnMin= 4 EnMin= -307.675095523675     IErMin= 4 ErrMin= 1.21D-04
 ErrMax= 1.21D-04  0.00D+00 EMaxC= 1.00D-01 BMatC= 4.63D-06 BMatP= 1.22D-05
 IDIUse=3 WtCom= 9.99D-01 WtEn= 1.21D-03
 Coeff-Com: -0.438D-02-0.246D-01 0.373D+00 0.656D+00
 Coeff-En:   0.000D+00 0.000D+00 0.269D-01 0.973D+00
 Coeff:     -0.437D-02-0.246D-01 0.372D+00 0.657D+00
 Gap=     0.368 Goal=   None    Shift=    0.000
 RMSDP=5.52D-06 MaxDP=3.62D-04 DE=-9.10D-06 OVMax= 4.90D-04

 Cycle   5  Pass 1  IDiag  1:
 RMSU=  3.58D-06    CP:  9.95D-01  1.12D+00  1.12D+00  8.75D-01
 E= -307.675099079528     Delta-E=       -0.000003555854 Rises=F Damp=F
 DIIS: error= 2.12D-05 at cycle   5 NSaved=   5.
 NSaved= 5 IEnMin= 5 EnMin= -307.675099079528     IErMin= 5 ErrMin= 2.12D-05
 ErrMax= 2.12D-05  0.00D+00 EMaxC= 1.00D-01 BMatC= 2.95D-07 BMatP= 4.63D-06
 IDIUse=1 WtCom= 1.00D+00 WtEn= 0.00D+00
 Coeff-Com:  0.388D-02-0.492D-01 0.650D-01 0.251D+00 0.729D+00
 Coeff:      0.388D-02-0.492D-01 0.650D-01 0.251D+00 0.729D+00
 Gap=     0.368 Goal=   None    Shift=    0.000
 RMSDP=2.08D-06 MaxDP=5.91D-05 DE=-3.56D-06 OVMax= 1.85D-04

 Cycle   6  Pass 1  IDiag  1:
 RMSU=  1.53D-06    CP:  9.95D-01  1.11D+00  1.15D+00  9.17D-01  8.39D-01
 E= -307.675099345153     Delta-E=       -0.000000265625 Rises=F Damp=F
 DIIS: error= 1.17D-05 at cycle   6 NSaved=   6.
 NSaved= 6 IEnMin= 6 EnMin= -307.675099345153     IErMin= 6 ErrMin= 1.17D-05
 ErrMax= 1.17D-05  0.00D+00 EMaxC= 1.00D-01 BMatC= 4.66D-08 BMatP= 2.95D-07
 IDIUse=1 WtCom= 1.00D+00 WtEn= 0.00D+00
 Coeff-Com:  0.225D-02-0.217D-01-0.587D-03 0.631D-01 0.347D+00 0.610D+00
 Coeff:      0.225D-02-0.217D-01-0.587D-03 0.631D-01 0.347D+00 0.610D+00
 Gap=     0.368 Goal=   None    Shift=    0.000
 RMSDP=7.35D-07 MaxDP=3.13D-05 DE=-2.66D-07 OVMax= 6.18D-05

 Cycle   7  Pass 1  IDiag  1:
 RMSU=  6.40D-07    CP:  9.95D-01  1.11D+00  1.16D+00  9.24D-01  9.14D-01
                    CP:  9.41D-01
 E= -307.675099385030     Delta-E=       -0.000000039877 Rises=F Damp=F
 DIIS: error= 4.04D-06 at cycle   7 NSaved=   7.
 NSaved= 7 IEnMin= 7 EnMin= -307.675099385030     IErMin= 7 ErrMin= 4.04D-06
 ErrMax= 4.04D-06  0.00D+00 EMaxC= 1.00D-01 BMatC= 7.46D-09 BMatP= 4.66D-08
 IDIUse=1 WtCom= 1.00D+00 WtEn= 0.00D+00
 Coeff-Com:  0.109D-03 0.225D-02-0.157D-01-0.332D-01-0.279D-01 0.279D+00
 Coeff-Com:  0.796D+00
 Coeff:      0.109D-03 0.225D-02-0.157D-01-0.332D-01-0.279D-01 0.279D+00
 Coeff:      0.796D+00
 Gap=     0.368 Goal=   None    Shift=    0.000
 RMSDP=3.78D-07 MaxDP=1.13D-05 DE=-3.99D-08 OVMax= 3.42D-05

 Cycle   8  Pass 1  IDiag  1:
 RMSU=  2.57D-07    CP:  9.95D-01  1.11D+00  1.16D+00  9.32D-01  9.44D-01
                    CP:  1.08D+00  9.86D-01
 E= -307.675099393096     Delta-E=       -0.000000008065 Rises=F Damp=F
 DIIS: error= 1.12D-06 at cycle   8 NSaved=   8.
 NSaved= 8 IEnMin= 8 EnMin= -307.675099393096     IErMin= 8 ErrMin= 1.12D-06
 ErrMax= 1.12D-06  0.00D+00 EMaxC= 1.00D-01 BMatC= 5.32D-10 BMatP= 7.46D-09
 IDIUse=1 WtCom= 1.00D+00 WtEn= 0.00D+00
 Coeff-Com: -0.192D-03 0.312D-02-0.510D-02-0.177D-01-0.471D-01 0.346D-01
 Coeff-Com:  0.282D+00 0.751D+00
 Coeff:     -0.192D-03 0.312D-02-0.510D-02-0.177D-01-0.471D-01 0.346D-01
 Coeff:      0.282D+00 0.751D+00
 Gap=     0.368 Goal=   None    Shift=    0.000
 RMSDP=9.89D-08 MaxDP=3.67D-06 DE=-8.07D-09 OVMax= 1.26D-05

 Cycle   9  Pass 1  IDiag  1:
 RMSU=  6.96D-08    CP:  9.95D-01  1.11D+00  1.16D+00  9.32D-01  9.47D-01
                    CP:  1.11D+00  1.06D+00  1.03D+00
 E= -307.675099393755     Delta-E=       -0.000000000659 Rises=F Damp=F
 DIIS: error= 3.48D-07 at cycle   9 NSaved=   9.
 NSaved= 9 IEnMin= 9 EnMin= -307.675099393755     IErMin= 9 ErrMin= 3.48D-07
[...]
           A16        110.36294 110.37174
           A17        110.62116 110.61266
           A18        110.61940 110.61337
           A19        108.85199 108.85445
           A20        123.09721 123.10745
           A21        111.42672 111.38766
           A22        125.47042 125.50490
           D1         179.98660-180.00682
           D2         -60.19164 -60.19336
           D3          60.17111  60.17861
           D4          -0.55925  -0.00442
           D5         178.61782 179.99838
           D6         -60.67115 -59.50829
           D7         178.91956 180.01284
           D8          58.40001  59.53353
           D9         179.62144 179.70964
           D10         59.21215  59.23078
           D11        -61.30740 -61.24854
           D12         61.21281  61.25830
           D13        -59.19648 -59.22057
           D14       -179.71603-179.69989
           D15        171.89904-180.01094
           D16         -8.94747  -0.00806
           D17        -65.72926 -56.69509
           D18        113.42423 123.30778
           D19         47.53291  56.68356
           D20       -133.31360-123.31356
 Largest change from initial coordinates is atom    9       0.000 Angstoms.
 GradGradGradGradGradGradGradGradGradGradGradGradGradGradGradGradGradGrad

 Leave Link  103 at Mon Mar 11 20:53:55 2019, MaxMem=   671088640 cpu:               0.5 elap:               0.0
 (Enter /shared/centos7/gaussian/g16/l202.exe)
                          Input orientation:                          
 ---------------------------------------------------------------------
 Center     Atomic      Atomic             Coordinates (Angstroms)
 Number     Number       Type             X           Y           Z
 ---------------------------------------------------------------------
      1          8           0        0.900889    0.738006    0.516636
      2          8           0        0.485579   -1.001073   -0.825729
      3          6           0       -1.349965    0.080426    0.301730
      4          6           0       -2.286953   -0.911196   -0.366136
      5          6           0        2.286013    0.598909    0.211085
      6          6           0        0.089189   -0.146686   -0.082291
      7          1           0       -1.409614    0.025593    1.390096
      8          1           0       -1.597774    1.111148    0.042207
      9          1           0       -2.216923   -0.837906   -1.449600
     10          1           0       -3.316985   -0.722029   -0.070137
     11          1           0       -2.027514   -1.931674   -0.091421
     12          1           0        2.794832    1.378675    0.767689
     13          1           0        2.643849   -0.383352    0.513395
     14          1           0        2.452264    0.720218   -0.857521
 ---------------------------------------------------------------------
                    Distance matrix (angstroms):
                    1          2          3          4          5
     1  O    0.000000
     2  O    2.235804   0.000000
     3  C    2.354770   2.410400   0.000000
     4  C    3.696145   2.811803   1.518981   0.000000
     5  C    1.425229   2.622306   3.673878   4.850321   0.000000
     6  C    1.341734   1.199918   1.506723   2.512188   2.338380
     7  H    2.570777   3.091227   1.091378   2.175235   3.921278
     8  H    2.570532   3.091141   1.091397   2.175221   3.921060
     9  H    4.008782   2.778373   2.159191   1.088196   5.009865
    10  H    4.501829   3.886937   2.156707   1.088286   5.763467
    11  H    4.009048   2.778645   2.159209   1.088187   5.010177
    12  H    2.015069   3.678971   4.368285   5.688022   1.084776
    13  H    2.072526   2.613993   4.026219   5.036367   1.088244
    14  H    2.072531   2.613752   4.026182   5.036183   1.088243
                    6          7          8          9         10
     6  C    0.000000
     7  H    2.108083   0.000000
     8  H    2.107958   1.740873   0.000000
     9  H    2.768659   3.075915   2.531332   0.000000
    10  H    3.454444   2.515806   2.515719   1.768186   0.000000
    11  H    2.768880   2.531321   3.075922   1.754097   1.768171
    12  H    3.220201   4.460447   4.460144   5.911623   6.516841
    13  H    2.633845   4.167302   4.521826   5.261851   5.998896
    14  H    2.633747   4.521989   4.167151   4.957783   5.998689
                   11         12         13         14
    11  H    0.000000
    12  H    5.911979   0.000000
    13  H    4.958299   1.786673   0.000000
    14  H    5.261924   1.786680   1.770305   0.000000
 Stoichiometry    C4H8O2
 Framework group  C1[X(C4H8O2)]
 Deg. of freedom    36
 Full point group                 C1      NOp   1
 RotChk:  IX=2 Diff= 1.10D-15
 Largest Abelian subgroup         C1      NOp   1
 Largest concise Abelian subgroup C1      NOp   1
                         Standard orientation:                         
 ---------------------------------------------------------------------
 Center     Atomic      Atomic             Coordinates (Angstroms)
 Number     Number       Type             X           Y           Z
 ---------------------------------------------------------------------
      1          8           0        1.143264   -0.700720    0.000034
      2          8           0        0.101761    1.277687   -0.000050
      3          6           0       -1.211112   -0.743796   -0.000090
      4          6           0       -2.460626    0.119928    0.000078
      5          6           0        2.388045   -0.006602    0.000036
      6          6           0        0.051226    0.078834   -0.000055
      7          1           0       -1.172038   -1.401006   -0.870523
      8          1           0       -1.171853   -1.401018    0.870350
      9          1           0       -2.483929    0.763712    0.877102
     10          1           0       -3.354148   -0.501350    0.000277
     11          1           0       -2.484271    0.763615   -0.876995
     12          1           0        3.157084   -0.771662    0.000236
     13          1           0        2.471963    0.620738   -0.885219
     14          1           0        2.471795    0.621049    0.885086
 ---------------------------------------------------------------------
 Rotational constants (GHZ):           9.6753897           2.1661996           1.8296130
 Leave Link  202 at Mon Mar 11 20:53:55 2019, MaxMem=   671088640 cpu:               0.1 elap:               0.0
 (Enter /shared/centos7/gaussian/g16/l601.exe)
 Copying SCF densities to generalized density rwf, IOpCl= 0 IROHF=0.

 **********************************************************************

            Population analysis using the SCF density.

 **********************************************************************

 Orbital symmetries:
       Occupied  (A) (A) (A) (A) (A) (A) (A) (A) (A) (A) (A) (A)
                 (A) (A) (A) (A) (A) (A) (A) (A) (A) (A) (A) (A)
       Virtual   (A) (A) (A) (A) (A) (A) (A) (A) (A) (A) (A) (A)
                 (A) (A) (A) (A) (A) (A) (A) (A) (A) (A) (A) (A)
                 (A) (A) (A) (A) (A) (A) (A) (A) (A) (A) (A) (A)
                 (A) (A) (A) (A) (A) (A) (A) (A) (A) (A) (A) (A)
                 (A) (A) (A) (A) (A) (A) (A) (A) (A) (A) (A) (A)
                 (A) (A) (A) (A) (A) (A) (A) (A) (A) (A) (A) (A)
                 (A) (A) (A) (A) (A) (A) (A) (A) (A) (A) (A) (A)
                 (A) (A) (A) (A) (A) (A) (A) (A) (A) (A) (A) (A)
                 (A) (A) (A) (A) (A) (A) (A) (A) (A) (A) (A) (A)
                 (A) (A) (A) (A) (A) (A) (A) (A) (A) (A) (A) (A)
                 (A) (A) (A) (A) (A) (A) (A) (A) (A) (A) (A) (A)
                 (A) (A) (A) (A) (A) (A) (A) (A) (A) (A) (A) (A)
                 (A) (A) (A) (A) (A) (A) (A) (A) (A) (A) (A) (A)
                 (A) (A) (A) (A) (A) (A) (A) (A) (A) (A) (A) (A)
                 (A) (A) (A) (A) (A) (A) (A) (A) (A) (A) (A) (A)
                 (A) (A) (A) (A) (A) (A) (A) (A) (A) (A) (A) (A)
                 (A) (A) (A) (A) (A) (A) (A) (A) (A) (A) (A) (A)
                 (A) (A) (A) (A) (A) (A) (A) (A) (A) (A) (A) (A)
                 (A) (A) (A) (A) (A) (A) (A) (A) (A) (A) (A) (A)
                 (A) (A) (A) (A) (A) (A) (A) (A) (A) (A) (A) (A)
                 (A) (A) (A) (A) (A) (A) (A) (A) (A) (A) (A) (A)
 The electronic state is 1-A.
 Alpha  occ. eigenvalues --  -19.66864 -19.61279 -10.66806 -10.58922 -10.55062
 Alpha  occ. eigenvalues --  -10.52800  -1.23856  -1.14353  -0.89349  -0.82387
 Alpha  occ. eigenvalues --   -0.73252  -0.64607  -0.58973  -0.58006  -0.56227
 Alpha  occ. eigenvalues --   -0.52482  -0.50589  -0.46017  -0.44638  -0.44049
 Alpha  occ. eigenvalues --   -0.42652  -0.41443  -0.37843  -0.35594
 Alpha virt. eigenvalues --    0.01131   0.02431   0.03677   0.03960   0.05005
 Alpha virt. eigenvalues --    0.05090   0.05753   0.06577   0.08384   0.08734
 Alpha virt. eigenvalues --    0.09015   0.09734   0.10542   0.12387   0.14286
 Alpha virt. eigenvalues --    0.15262   0.17997   0.19120   0.20012   0.20068
 Alpha virt. eigenvalues --    0.21602   0.22426   0.23004   0.23325   0.24349
 Alpha virt. eigenvalues --    0.26440   0.27717   0.28357   0.28444   0.29376
 Alpha virt. eigenvalues --    0.30486   0.32096   0.33755   0.34550   0.36719
 Alpha virt. eigenvalues --    0.38664   0.39658   0.41468   0.44371   0.47141
 Alpha virt. eigenvalues --    0.47821   0.49382   0.50520   0.51629   0.53836
 Alpha virt. eigenvalues --    0.54465   0.55501   0.56197   0.56571   0.57700
 Alpha virt. eigenvalues --    0.61100   0.61350   0.62389   0.63662   0.66426
 Alpha virt. eigenvalues --    0.67342   0.68335   0.70969   0.71671   0.75389
 Alpha virt. eigenvalues --    0.76859   0.78698   0.80793   0.84057   0.84608
 Alpha virt. eigenvalues --    0.87201   0.89469   0.90646   0.92160   0.92745
 Alpha virt. eigenvalues --    0.98538   1.01188   1.02646   1.05900   1.06009
 Alpha virt. eigenvalues --    1.09543   1.10683   1.12093   1.12930   1.13629
 Alpha virt. eigenvalues --    1.16474   1.17511   1.17627   1.18612   1.21358
 Alpha virt. eigenvalues --    1.22799   1.23643   1.24523   1.24528   1.24706
 Alpha virt. eigenvalues --    1.28861   1.30114   1.32922   1.34374   1.35144
 Alpha virt. eigenvalues --    1.39604   1.41985   1.43103   1.43796   1.45849
 Alpha virt. eigenvalues --    1.46724   1.47133   1.49427   1.53068   1.55160
 Alpha virt. eigenvalues --    1.58088   1.59776   1.60736   1.63247   1.65492
 Alpha virt. eigenvalues --    1.67533   1.70032   1.72867   1.77333   1.83306
 Alpha virt. eigenvalues --    1.85139   1.93470   2.06419   2.09905   2.12303
 Alpha virt. eigenvalues --    2.27991   2.35033   2.39289   2.40186   2.49283
 Alpha virt. eigenvalues --    2.52658   2.58107   2.59919   2.66156   2.67913
 Alpha virt. eigenvalues --    2.74602   2.75487   2.79974   2.81265   2.83995
 Alpha virt. eigenvalues --    2.84066   2.84572   2.94350   2.96122   2.98582
 Alpha virt. eigenvalues --    3.00951   3.02275   3.03395   3.07774   3.10533
 Alpha virt. eigenvalues --    3.11402   3.13086   3.13791   3.15341   3.18307
 Alpha virt. eigenvalues --    3.19894   3.24956   3.26041   3.26850   3.28923
 Alpha virt. eigenvalues --    3.32000   3.34991   3.40342   3.40653   3.43069
 Alpha virt. eigenvalues --    3.45078   3.49528   3.51631   3.51720   3.52309
 Alpha virt. eigenvalues --    3.52966   3.56315   3.57860   3.61175   3.61306
 Alpha virt. eigenvalues --    3.67457   3.67958   3.72394   3.77529   3.82852
 Alpha virt. eigenvalues --    3.83166   3.86962   3.87392   3.91245   3.94900
 Alpha virt. eigenvalues --    3.95478   3.97410   4.00607   4.01698   4.02026
 Alpha virt. eigenvalues --    4.06040   4.12702   4.13917   4.17716   4.18665
 Alpha virt. eigenvalues --    4.26512   4.26858   4.28830   4.31001   4.31020
 Alpha virt. eigenvalues --    4.32105   4.32634   4.34827   4.36441   4.43097
 Alpha virt. eigenvalues --    4.48239   4.49805   4.51366   4.54084   4.55668
 Alpha virt. eigenvalues --    4.60859   4.72681   4.91931   4.93145   5.08308
 Alpha virt. eigenvalues --    5.11824   5.14951   5.20614   5.20815   5.23682
 Alpha virt. eigenvalues --    5.27477   5.37357   5.40971   5.45126   5.50689
 Alpha virt. eigenvalues --    5.53212   5.56706   5.57335   5.58223   5.65217
 Alpha virt. eigenvalues --    5.67247   5.69384   5.74853   5.80629   6.00293
 Alpha virt. eigenvalues --    6.09630   6.38784   6.45963   6.69867   6.83660
 Alpha virt. eigenvalues --    6.96612   7.06543   7.11743   7.17800   7.19469
 Alpha virt. eigenvalues --    7.25789   7.31779   7.55378   7.67684   7.77758
 Alpha virt. eigenvalues --    7.83484  24.34340  24.43853  24.46702  24.86034
 Alpha virt. eigenvalues --   50.17733  50.31652
          Condensed to atoms (all electrons):
               1          2          3          4          5          6
     1  O    8.214794  -0.084624  -0.218006   0.008869   0.151231   0.216935
     2  O   -0.084624   8.213388   0.001374  -0.029740  -0.035570   0.348888
     3  C   -0.218006   0.001374   5.666614   0.094580  -0.061848  -0.133452
     4  C    0.008869  -0.029740   0.094580   5.176223  -0.013363   0.077186
     5  C    0.151231  -0.035570  -0.061848  -0.013363   4.967614  -0.107678
     6  C    0.216935   0.348888  -0.133452   0.077186  -0.107678   5.442882
     7  H    0.002454   0.000622   0.450830  -0.038730   0.001430  -0.048673
     8  H    0.002455   0.000624   0.450873  -0.038749   0.001434  -0.048715
     9  H    0.000084  -0.001581  -0.024649   0.412769  -0.000210  -0.006978
    10  H   -0.000608   0.001225  -0.078184   0.424387   0.000452   0.038418
    11  H    0.000084  -0.001578  -0.024625   0.412770  -0.000209  -0.006997
    12  H   -0.059015   0.003701   0.002346   0.000790   0.419175   0.017898
    13  H   -0.035581  -0.004394  -0.001455  -0.000948   0.431125   0.001853
    14  H   -0.035575  -0.004397  -0.001458  -0.000949   0.431124   0.001854
               7          8          9         10         11         12
     1  O    0.002454   0.002455   0.000084  -0.000608   0.000084  -0.059015
     2  O    0.000622   0.000624  -0.001581   0.001225  -0.001578   0.003701
     3  C    0.450830   0.450873  -0.024649  -0.078184  -0.024625   0.002346
     4  C   -0.038730  -0.038749   0.412769   0.424387   0.412770   0.000790
     5  C    0.001430   0.001434  -0.000210   0.000452  -0.000209   0.419175
     6  C   -0.048673  -0.048715  -0.006978   0.038418  -0.006997   0.017898
     7  H    0.517182  -0.037192   0.005409  -0.003515  -0.006671   0.000009
     8  H   -0.037192   0.517197  -0.006670  -0.003517   0.005408   0.000009
     9  H    0.005409  -0.006670   0.528096  -0.025290  -0.031326  -0.000002
    10  H   -0.003515  -0.003517  -0.025290   0.538142  -0.025289  -0.000000
    11  H   -0.006671   0.005408  -0.031326  -0.025289   0.528081  -0.000002
    12  H    0.000009   0.000009  -0.000002  -0.000000  -0.000002   0.533253
    13  H    0.000137  -0.000094   0.000012  -0.000001  -0.000006  -0.025077
    14  H   -0.000094   0.000137  -0.000006  -0.000001   0.000012  -0.025077
              13         14
     1  O   -0.035581  -0.035575
     2  O   -0.004394  -0.004397
     3  C   -0.001455  -0.001458
     4  C   -0.000948  -0.000949
     5  C    0.431125   0.431124
     6  C    0.001853   0.001854
     7  H    0.000137  -0.000094
     8  H   -0.000094   0.000137
     9  H    0.000012  -0.000006
    10  H   -0.000001  -0.000001
    11  H   -0.000006   0.000012
    12  H   -0.025077  -0.025077
    13  H    0.533186  -0.037522
    14  H   -0.037522   0.533187
 Mulliken charges:
               1
     1  O   -0.163498
     2  O   -0.407937
     3  C   -0.122939
     4  C   -0.485096
     5  C   -0.184706
     6  C    0.206578
     7  H    0.156803
     8  H    0.156801
     9  H    0.150342
    10  H    0.133783
    11  H    0.150348
    12  H    0.131994
    13  H    0.138764
    14  H    0.138764
 Sum of Mulliken charges =  -0.00000
 Mulliken charges with hydrogens summed into heavy atoms:
               1
     1  O   -0.163498
     2  O   -0.407937
     3  C    0.190665
     4  C   -0.050624
     5  C    0.224816
     6  C    0.206578
 Electronic spatial extent (au):  <R**2>=            688.1113
 Charge=             -0.0000 electrons
 Dipole moment (field-independent basis, Debye):
    X=              0.3637    Y=             -1.6692    Z=              0.0000  Tot=              1.7084
 Quadrupole moment (field-independent basis, Debye-Ang):
   XX=            -30.8408   YY=            -41.3450   ZZ=            -35.8975
   XY=              1.4921   XZ=              0.0002   YZ=              0.0003
 Traceless Quadrupole moment (field-independent basis, Debye-Ang):
   XX=              5.1869   YY=             -5.3173   ZZ=              0.1303
   XY=              1.4921   XZ=              0.0002   YZ=              0.0003
 Octapole moment (field-independent basis, Debye-Ang**2):
  XXX=             19.2507  YYY=             -3.9882  ZZZ=             -0.0008  XYY=              0.1619
  XXY=             -0.2940  XXZ=             -0.0000  XZZ=              1.9760  YZZ=              0.8848
  YYZ=              0.0005  XYZ=             -0.0002
 Hexadecapole moment (field-independent basis, Debye-Ang**3):
 XXXX=           -660.1416 YYYY=           -165.1724 ZZZZ=            -54.7740 XXXY=             -2.8564
 XXXZ=              0.0019 YYYX=             -1.1329 YYYZ=              0.0008 ZZZX=              0.0002
 ZZZY=              0.0003 XXYY=           -139.3883 XXZZ=           -125.5806 YYZZ=            -33.0503
 XXYZ=             -0.0019 YYXZ=              0.0014 ZZXY=              0.7656
 N-N= 2.465155699685D+02 E-N=-1.212783738879D+03  KE= 3.065736544698D+02
 No NMR shielding tensors so no spin-rotation constants.
 Leave Link  601 at Mon Mar 11 20:53:55 2019, MaxMem=   671088640 cpu:               4.1 elap:               0.2
 (Enter /shared/centos7/gaussian/g16/l9999.exe)
 1\1\GINC-C0301\Scan\RM062X\6-311+G(2df,2p)\C4H8O2\UNDERKOFFLER.C\11-Ma
 r-2019\0\\#p m062x/6-311+g(2df,2p) Opt=(CalcFC,ModRedun)\\Gaussian Inp
 ut Prepared from Scan Object\\0,1\O,0.9008890354,0.7380062249,0.516635
 734\O,0.4855794305,-1.0010726472,-0.8257293373\C,-1.3499652804,0.08042
 60983,0.3017298106\C,-2.2869525241,-0.9111960764,-0.366135678\C,2.2860
 132531,0.598909399,0.211085165\C,0.0891885486,-0.1466856432,-0.0822910
 642\H,-1.4096143747,0.025592636,1.3900964566\H,-1.5977742857,1.1111475
 022,0.0422074367\H,-2.2169232471,-0.8379058317,-1.4496001163\H,-3.3169
 848965,-0.722028635,-0.0701367932\H,-2.0275138798,-1.9316737864,-0.091
 420661\H,2.7948318243,1.3786749625,0.7676887691\H,2.6438488442,-0.3833
 517086,0.5133949919\H,2.4522635522,0.7202175054,-0.8575207139\\Version
 =EM64L-G16RevA.03\State=1-A\HF=-307.6763594,-307.6762844,-307.6760783,
 -307.6757658,-307.6753926,-307.6750239,-307.674721,-307.6745519,-307.6
 745362,-307.6746007,-307.674653,-307.6746726,-307.6746557,-307.6746103
 ,-307.6745409,-307.6744512,-307.6743569,-307.6742848,-307.6742628,-307
 .6742923,-307.674365,-307.6744529,-307.6745348,-307.6745998,-307.67464
 64,-307.6746698,-307.6746655,-307.6746307,-307.6745681,-307.6745286,-3
 07.6746359,-307.6749315,-307.6753289,-307.6757349,-307.6760682,-307.67
 62833,-307.6763594\RMSD=6.148e-09,5.859e-09,5.032e-09,8.336e-09,9.133e
 -09,9.246e-09,3.580e-09,6.069e-09,3.398e-09,7.101e-09,7.080e-09,9.558e
 -09,9.101e-09,4.202e-09,3.592e-09,5.661e-09,4.101e-09,9.363e-09,5.549e
 -09,5.885e-09,4.471e-09,6.627e-09,8.410e-09,4.987e-09,4.991e-09,5.371e
 -09,6.953e-09,6.212e-09,3.885e-09,2.916e-09,6.672e-09,6.161e-09,8.686e
 -09,6.682e-09,4.368e-09,9.751e-09,6.616e-09\PG=C01 [X(C4H8O2)]\\@


 LIVE PURE, SPEAK TRUE, RIGHT WRONG, FOLLOW THE KING...
 ELSE, WHEREFORE BORN......
           IDYLLS OF THE KING, TENNYSON
 Job cpu time:       0 days 22 hours 37 minutes 36.9 seconds.
 Elapsed time:       0 days  1 hours  8 minutes 36.6 seconds.
 File lengths (MBytes):  RWF=   1328 Int=      0 D2E=      0 Chk=     32 Scr=     32
 Normal termination of Gaussian 16 at Mon Mar 11 20:53:55 2019.
