 Entering Gaussian System, Link 0=g16
 Input=RJUFJBKOKNCXHH-UHFFFAOYSA-N_36by10.0_tor25_a1_F.com
 Output=RJUFJBKOKNCXHH-UHFFFAOYSA-N_36by10.0_tor25_a1_F.log
 Initial command:
 /shared/centos7/gaussian/g16/l1.exe "/scratch/underkoffler.c/gaussian_scratch/Gau-13645.inp" -scrdir="/scratch/underkoffler.c/gaussian_scratch/"
 Entering Link 1 = /shared/centos7/gaussian/g16/l1.exe PID=     13646.
  
 Copyright (c) 1988,1990,1992,1993,1995,1998,2003,2009,2016,
            Gaussian, Inc.  All Rights Reserved.
  
 This is part of the Gaussian(R) 16 program.  It is based on
 the Gaussian(R) 09 system (copyright 2009, Gaussian, Inc.),
 the Gaussian(R) 03 system (copyright 2003, Gaussian, Inc.),
 the Gaussian(R) 98 system (copyright 1998, Gaussian, Inc.),
 the Gaussian(R) 94 system (copyright 1995, Gaussian, Inc.),
 the Gaussian 92(TM) system (copyright 1992, Gaussian, Inc.),
 the Gaussian 90(TM) system (copyright 1990, Gaussian, Inc.),
 the Gaussian 88(TM) system (copyright 1988, Gaussian, Inc.),
 the Gaussian 86(TM) system (copyright 1986, Carnegie Mellon
 University), and the Gaussian 82(TM) system (copyright 1983,
 Carnegie Mellon University). Gaussian is a federally registered
 trademark of Gaussian, Inc.
  
 This software contains proprietary and confidential information,
 including trade secrets, belonging to Gaussian, Inc.
  
 This software is provided under written license and may be
 used, copied, transmitted, or stored only in accord with that
 written license.
  
 The following legend is applicable only to US Government
 contracts under FAR:
  
                    RESTRICTED RIGHTS LEGEND
  
 Use, reproduction and disclosure by the US Government is
 subject to restrictions as set forth in subparagraphs (a)
 and (c) of the Commercial Computer Software - Restricted
 Rights clause in FAR 52.227-19.
  
 Gaussian, Inc.
 340 Quinnipiac St., Bldg. 40, Wallingford CT 06492
  
  
 ---------------------------------------------------------------
 Warning -- This program may not be used in any manner that
 competes with the business of Gaussian, Inc. or will provide
 assistance to any competitor of Gaussian, Inc.  The licensee
 of this program is prohibited from giving any competitor of
 Gaussian, Inc. access to this program.  By using this program,
 the user acknowledges that Gaussian, Inc. is engaged in the
 business of creating and licensing software in the field of
 computational chemistry and represents and warrants to the
 licensee that it is not a competitor of Gaussian, Inc. and that
 it will not use this program in any manner prohibited above.
 ---------------------------------------------------------------
  

 Cite this work as:
 Gaussian 16, Revision A.03,
 M. J. Frisch, G. W. Trucks, H. B. Schlegel, G. E. Scuseria, 
 M. A. Robb, J. R. Cheeseman, G. Scalmani, V. Barone, 
 G. A. Petersson, H. Nakatsuji, X. Li, M. Caricato, A. V. Marenich, 
 J. Bloino, B. G. Janesko, R. Gomperts, B. Mennucci, H. P. Hratchian, 
 J. V. Ortiz, A. F. Izmaylov, J. L. Sonnenberg, D. Williams-Young, 
 F. Ding, F. Lipparini, F. Egidi, J. Goings, B. Peng, A. Petrone, 
 T. Henderson, D. Ranasinghe, V. G. Zakrzewski, J. Gao, N. Rega, 
 G. Zheng, W. Liang, M. Hada, M. Ehara, K. Toyota, R. Fukuda, 
 J. Hasegawa, M. Ishida, T. Nakajima, Y. Honda, O. Kitao, H. Nakai, 
 T. Vreven, K. Throssell, J. A. Montgomery, Jr., J. E. Peralta, 
 F. Ogliaro, M. J. Bearpark, J. J. Heyd, E. N. Brothers, K. N. Kudin, 
 V. N. Staroverov, T. A. Keith, R. Kobayashi, J. Normand, 
 K. Raghavachari, A. P. Rendell, J. C. Burant, S. S. Iyengar, 
 J. Tomasi, M. Cossi, J. M. Millam, M. Klene, C. Adamo, R. Cammi, 
 J. W. Ochterski, R. L. Martin, K. Morokuma, O. Farkas, 
 J. B. Foresman, and D. J. Fox, Gaussian, Inc., Wallingford CT, 2016.
 
 ******************************************
 Gaussian 16:  EM64L-G16RevA.03 25-Dec-2016
                23-Apr-2019 
 ******************************************
 %nprocshared=20
 Will use up to   20 processors via shared memory.
 %mem=5GB
 ----------------------------------------------
 #p m062x/6-311+g(2df,2p) Opt=(CalcFC,ModRedun)
 ----------------------------------------------
 1/10=4,18=120,19=15,26=3,38=1/1,3;
 2/9=110,12=2,17=6,18=5,40=1/2;
 3/5=4,6=6,7=214,11=2,25=1,30=1,71=2,74=-55,140=1/1,2,3;
 4//1;
 5/5=2,38=5/2;
 8/6=4,10=90,11=11/1;
 11/6=1,8=1,9=11,15=111,16=1/1,2,10;
 10/6=1,13=1/2;
 6/7=2,8=2,9=2,10=2,28=1/1;
 7/10=1,18=20,25=1/1,2,3,16;
 1/10=4,18=20,19=15,26=3/3(2);
 2/9=110/2;
 99//99;
 2/9=110/2;
 3/5=4,6=6,7=214,11=2,25=1,30=1,71=1,74=-55/1,2,3;
 4/5=5,16=3,69=1/1;
 5/5=2,38=5/2;
 7//1,2,3,16;
 1/18=20,19=15,26=3/3(-5);
 2/9=110/2;
 6/7=2,8=2,9=2,10=2,19=2,28=1/1;
 99/9=1/99;
 Leave Link    1 at Tue Apr 23 21:55:09 2019, MaxMem=   671088640 cpu:              36.3 elap:               1.9
 (Enter /shared/centos7/gaussian/g16/l101.exe)
 ----------------------------------------
 Gaussian Input Prepared from Scan Object
 ----------------------------------------
 Symbolic Z-matrix:
 Charge =  0 Multiplicity = 1
 O                     1.14326  -0.70073   0. 
 O                     0.10186   1.27773  0. 
 C                    -1.21113  -0.74369  0. 
 C                    -2.46073   0.11987   0. 
 C                     2.38807  -0.00667   0. 
 C                     0.05125   0.07888  0. 
 H                    -1.17195  -1.40094  -0.87043 
 H                    -1.17195  -1.40095   0.87042 
 H                    -2.48427   0.76359   0.87706 
 H                    -3.3542   -0.5015    0. 
 H                    -2.48427   0.76359  -0.87705 
 H                     3.15708  -0.77177   0. 
 H                     2.47194   0.62082  -0.88515 
 H                     2.47194   0.62082   0.88515 
 
 The following ModRedundant input section has been read:
 B       4      10 B                                                           
 B       4      11 B                                                           
 B       4       9 B                                                           
 B       5      12 B                                                           
 B       5      13 B                                                           
 B       2       6 B                                                           
 B       3       4 B                                                           
 B       3       6 B                                                           
 B       3       8 B                                                           
 B       1       5 B                                                           
 B       3       7 B                                                           
 B       5      14 B                                                           
 B       1       6 B                                                           
 D       4       3       6       2 S  36 10.000                                
 D       6       1       5      14 F                                           
 D       5       1       6       3 F                                           
 D       6       3       4      11 F                                           
 
 ITRead=  0  0  0  0  0  0  0  0  0  0  0  0  0  0
 MicOpt= -1 -1 -1 -1 -1 -1 -1 -1 -1 -1 -1 -1 -1 -1
 NAtoms=     14 NQM=       14 NQMF=       0 NMMI=      0 NMMIF=      0
                NMic=       0 NMicF=      0.
                    Isotopes and Nuclear Properties:
 (Nuclear quadrupole moments (NQMom) in fm**2, nuclear magnetic moments (NMagM)
  in nuclear magnetons)

  Atom         1           2           3           4           5           6           7           8           9          10
 IAtWgt=          16          16          12          12          12          12           1           1           1           1
 AtmWgt=  15.9949146  15.9949146  12.0000000  12.0000000  12.0000000  12.0000000   1.0078250   1.0078250   1.0078250   1.0078250
 NucSpn=           0           0           0           0           0           0           1           1           1           1
 AtZEff=  -0.0000000  -0.0000000  -0.0000000  -0.0000000  -0.0000000  -0.0000000  -0.0000000  -0.0000000  -0.0000000  -0.0000000
 NQMom=    0.0000000   0.0000000   0.0000000   0.0000000   0.0000000   0.0000000   0.0000000   0.0000000   0.0000000   0.0000000
 NMagM=    0.0000000   0.0000000   0.0000000   0.0000000   0.0000000   0.0000000   2.7928460   2.7928460   2.7928460   2.7928460
 AtZNuc=   8.0000000   8.0000000   6.0000000   6.0000000   6.0000000   6.0000000   1.0000000   1.0000000   1.0000000   1.0000000

  Atom        11          12          13          14
 IAtWgt=           1           1           1           1
 AtmWgt=   1.0078250   1.0078250   1.0078250   1.0078250
 NucSpn=           1           1           1           1
 AtZEff=  -0.0000000  -0.0000000  -0.0000000  -0.0000000
 NQMom=    0.0000000   0.0000000   0.0000000   0.0000000
 NMagM=    2.7928460   2.7928460   2.7928460   2.7928460
 AtZNuc=   1.0000000   1.0000000   1.0000000   1.0000000
 Leave Link  101 at Tue Apr 23 21:55:09 2019, MaxMem=   671088640 cpu:               5.6 elap:               0.3
 (Enter /shared/centos7/gaussian/g16/l103.exe)

 GradGradGradGradGradGradGradGradGradGradGradGradGradGradGradGradGradGrad
 Berny optimization.
 Initialization pass.
                           ----------------------------
                           !    Initial Parameters    !
                           ! (Angstroms and Degrees)  !
 --------------------------                            --------------------------
 ! Name  Definition              Value          Derivative Info.                !
 --------------------------------------------------------------------------------
 ! R1    R(1,5)                  1.4252         calculate D2E/DX2 analytically  !
 ! R2    R(1,6)                  1.3417         calculate D2E/DX2 analytically  !
 ! R3    R(2,6)                  1.1999         calculate D2E/DX2 analytically  !
 ! R4    R(3,4)                  1.519          calculate D2E/DX2 analytically  !
 ! R5    R(3,6)                  1.5067         calculate D2E/DX2 analytically  !
 ! R6    R(3,7)                  1.0914         calculate D2E/DX2 analytically  !
 ! R7    R(3,8)                  1.0914         calculate D2E/DX2 analytically  !
 ! R8    R(4,9)                  1.0882         calculate D2E/DX2 analytically  !
 ! R9    R(4,10)                 1.0883         calculate D2E/DX2 analytically  !
 ! R10   R(4,11)                 1.0882         calculate D2E/DX2 analytically  !
 ! R11   R(5,12)                 1.0848         calculate D2E/DX2 analytically  !
 ! R12   R(5,13)                 1.0882         calculate D2E/DX2 analytically  !
 ! R13   R(5,14)                 1.0882         calculate D2E/DX2 analytically  !
 ! A1    A(5,1,6)              115.3337         calculate D2E/DX2 analytically  !
 ! A2    A(4,3,6)              112.265          calculate D2E/DX2 analytically  !
 ! A3    A(4,3,7)              111.8328         calculate D2E/DX2 analytically  !
 ! A4    A(4,3,8)              111.8328         calculate D2E/DX2 analytically  !
 ! A5    A(6,3,7)              107.379          calculate D2E/DX2 analytically  !
 ! A6    A(6,3,8)              107.379          calculate D2E/DX2 analytically  !
 ! A7    A(7,3,8)              105.7892         calculate D2E/DX2 analytically  !
 ! A8    A(3,4,9)              110.7385         calculate D2E/DX2 analytically  !
 ! A9    A(3,4,10)             110.5363         calculate D2E/DX2 analytically  !
 ! A10   A(3,4,11)             110.7385         calculate D2E/DX2 analytically  !
 ! A11   A(9,4,10)             108.6625         calculate D2E/DX2 analytically  !
 ! A12   A(9,4,11)             107.409          calculate D2E/DX2 analytically  !
 ! A13   A(10,4,11)            108.6625         calculate D2E/DX2 analytically  !
 ! A14   A(1,5,12)             106.0037         calculate D2E/DX2 analytically  !
 ! A15   A(1,5,13)             110.3716         calculate D2E/DX2 analytically  !
 ! A16   A(1,5,14)             110.3716         calculate D2E/DX2 analytically  !
 ! A17   A(12,5,13)            110.6129         calculate D2E/DX2 analytically  !
 ! A18   A(12,5,14)            110.6129         calculate D2E/DX2 analytically  !
 ! A19   A(13,5,14)            108.8545         calculate D2E/DX2 analytically  !
 ! A20   A(1,6,2)              123.1066         calculate D2E/DX2 analytically  !
 ! A21   A(1,6,3)              111.3877         calculate D2E/DX2 analytically  !
 ! A22   A(2,6,3)              125.5057         calculate D2E/DX2 analytically  !
 ! D1    D(6,1,5,12)          -180.0            calculate D2E/DX2 analytically  !
 ! D2    D(6,1,5,13)           -60.186          calculate D2E/DX2 analytically  !
 ! D3    D(6,1,5,14)            60.186          frozen, calculate D2E/DX2 analyt!
 ! D4    D(5,1,6,2)              0.0            calculate D2E/DX2 analytically  !
 ! D5    D(5,1,6,3)            180.0            frozen, calculate D2E/DX2 analyt!
 ! D6    D(6,3,4,9)            -59.521          calculate D2E/DX2 analytically  !
 ! D7    D(6,3,4,10)           180.0            calculate D2E/DX2 analytically  !
 ! D8    D(6,3,4,11)            59.521          frozen, calculate D2E/DX2 analyt!
 ! D9    D(7,3,4,9)            179.7004         calculate D2E/DX2 analytically  !
 ! D10   D(7,3,4,10)            59.2214         calculate D2E/DX2 analytically  !
 ! D11   D(7,3,4,11)           -61.2576         calculate D2E/DX2 analytically  !
 ! D12   D(8,3,4,9)             61.2575         calculate D2E/DX2 analytically  !
 ! D13   D(8,3,4,10)           -59.2214         calculate D2E/DX2 analytically  !
 ! D14   D(8,3,4,11)          -179.7004         calculate D2E/DX2 analytically  !
 ! D15   D(4,3,6,1)            179.9998         calculate D2E/DX2 analytically  !
 ! D16   D(4,3,6,2)             -0.0002         Scan                            !
 ! D17   D(7,3,6,1)            -56.6864         calculate D2E/DX2 analytically  !
 ! D18   D(7,3,6,2)            123.3136         calculate D2E/DX2 analytically  !
 ! D19   D(8,3,6,1)             56.6861         calculate D2E/DX2 analytically  !
 ! D20   D(8,3,6,2)           -123.3139         calculate D2E/DX2 analytically  !
 --------------------------------------------------------------------------------
 Trust Radius=3.00D-01 FncErr=1.00D-07 GrdErr=1.00D-06 EigMax=2.50D+02 EigMin=1.00D-04
 Number of optimizations in scan=  37
 Number of steps in this run=     65 maximum allowed number of steps=    100.
 GradGradGradGradGradGradGradGradGradGradGradGradGradGradGradGradGradGrad

 Leave Link  103 at Tue Apr 23 21:55:09 2019, MaxMem=   671088640 cpu:               0.1 elap:               0.0
 (Enter /shared/centos7/gaussian/g16/l202.exe)
                          Input orientation:                          
 ---------------------------------------------------------------------
 Center     Atomic      Atomic             Coordinates (Angstroms)
 Number     Number       Type             X           Y           Z
 ---------------------------------------------------------------------
      1          8           0        1.143256   -0.700732    0.000000
      2          8           0        0.101861    1.277730   -0.000000
      3          6           0       -1.211130   -0.743685   -0.000001
      4          6           0       -2.460734    0.119865    0.000002
      5          6           0        2.388074   -0.006671    0.000001
      6          6           0        0.051249    0.078882   -0.000000
      7          1           0       -1.171953   -1.400941   -0.870426
      8          1           0       -1.171952   -1.400946    0.870420
      9          1           0       -2.484273    0.763589    0.877061
     10          1           0       -3.354195   -0.501498    0.000000
     11          1           0       -2.484274    0.763594   -0.877054
     12          1           0        3.157077   -0.771767    0.000001
     13          1           0        2.471940    0.620820   -0.885153
     14          1           0        2.471940    0.620820    0.885154
 ---------------------------------------------------------------------
                    Distance matrix (angstroms):
                    1          2          3          4          5
     1  O    0.000000
     2  O    2.235803   0.000000
     3  C    2.354779   2.410408   0.000000
     4  C    3.696232   2.812036   1.518957   0.000000
     5  C    1.425234   2.622300   3.673890   4.850460   0.000000
     6  C    1.341744   1.199916   1.506724   2.512318   2.338391
     7  H    2.570628   3.091201   1.091403   2.175191   3.921151
     8  H    2.570626   3.091203   1.091403   2.175191   3.921150
     9  H    4.009045   2.778789   2.159168   1.088195   5.010221
    10  H    4.501863   3.887156   2.156706   1.088285   5.763551
    11  H    4.009046   2.778787   2.159168   1.088195   5.010221
    12  H    2.015074   3.678965   4.368298   5.688130   1.084775
    13  H    2.072534   2.613867   4.026211   5.036441   1.088244
    14  H    2.072534   2.613867   4.026212   5.036440   1.088244
                    6          7          8          9         10
     6  C    0.000000
     7  H    2.108018   0.000000
     8  H    2.108018   1.740846   0.000000
     9  H    2.768923   3.075888   2.531293   0.000000
    10  H    3.454547   2.515715   2.515716   1.768176   0.000000
    11  H    2.768923   2.531293   3.075888   1.754116   1.768176
    12  H    3.220213   4.460270   4.460268   5.911970   6.516880
    13  H    2.633807   4.167216   4.521894   5.262113   5.998913
    14  H    2.633807   4.521895   4.167217   4.958276   5.998912
                   11         12         13         14
    11  H    0.000000
    12  H    5.911972   0.000000
    13  H    4.958277   1.786676   0.000000
    14  H    5.262112   1.786676   1.770306   0.000000
 Stoichiometry    C4H8O2
 Framework group  C1[X(C4H8O2)]
 Deg. of freedom    36
 Full point group                 C1      NOp   1
 Largest Abelian subgroup         C1      NOp   1
 Largest concise Abelian subgroup C1      NOp   1
                         Standard orientation:                         
 ---------------------------------------------------------------------
 Center     Atomic      Atomic             Coordinates (Angstroms)
 Number     Number       Type             X           Y           Z
 ---------------------------------------------------------------------
      1          8           0        1.143256   -0.700732    0.000000
      2          8           0        0.101861    1.277730   -0.000000
      3          6           0       -1.211130   -0.743685   -0.000001
      4          6           0       -2.460734    0.119865    0.000001
      5          6           0        2.388074   -0.006671    0.000000
      6          6           0        0.051249    0.078882   -0.000000
      7          1           0       -1.171953   -1.400941   -0.870426
      8          1           0       -1.171952   -1.400946    0.870420
      9          1           0       -2.484273    0.763589    0.877061
     10          1           0       -3.354195   -0.501498    0.000000
     11          1           0       -2.484274    0.763594   -0.877055
     12          1           0        3.157078   -0.771767    0.000001
     13          1           0        2.471940    0.620820   -0.885153
     14          1           0        2.471940    0.620821    0.885153
 ---------------------------------------------------------------------
 Rotational constants (GHZ):           9.6754876           2.1660943           1.8295412
 Leave Link  202 at Tue Apr 23 21:55:09 2019, MaxMem=   671088640 cpu:               0.2 elap:               0.0
 (Enter /shared/centos7/gaussian/g16/l301.exe)
 Standard basis: 6-311+G(2df,2p) (5D, 7F)
 Ernie: Thresh=  0.10000D-02 Tol=  0.10000D-05 Strict=F.
 There are   306 symmetry adapted cartesian basis functions of A   symmetry.
 There are   276 symmetry adapted basis functions of A   symmetry.
   276 basis functions,   400 primitive gaussians,   306 cartesian basis functions
    24 alpha electrons       24 beta electrons
       nuclear repulsion energy       246.5133791555 Hartrees.
 IExCor= 4336 DFT=T Ex+Corr=M062X ExCW=0 ScaHFX=  0.540000
 ScaDFX=  1.000000  1.000000  1.000000  1.000000 ScalE2=  1.000000  1.000000
 IRadAn=      5 IRanWt=     -1 IRanGd=            0 ICorTp=0 IEmpDi=  4
 NAtoms=   14 NActive=   14 NUniq=   14 SFac= 1.00D+00 NAtFMM=   60 NAOKFM=F Big=F
 Integral buffers will be    131072 words long.
 Raffenetti 2 integral format.
 Two-electron integral symmetry is turned on.
 Leave Link  301 at Tue Apr 23 21:55:09 2019, MaxMem=   671088640 cpu:               0.9 elap:               0.1
 (Enter /shared/centos7/gaussian/g16/l302.exe)
 NPDir=0 NMtPBC=     1 NCelOv=     1 NCel=       1 NClECP=     1 NCelD=      1
         NCelK=      1 NCelE2=     1 NClLst=     1 CellRange=     0.0.
 One-electron integrals computed using PRISM.
 One-electron integral symmetry used in STVInt
 NBasis=   276 RedAO= T EigKep=  2.92D-05  NBF=   276
 NBsUse=   276 1.00D-06 EigRej= -1.00D+00 NBFU=   276
 Precomputing XC quadrature grid using
 IXCGrd= 4 IRadAn=           5 IRanWt=          -1 IRanGd=           0 AccXCQ= 0.00D+00.
 Generated NRdTot=       0 NPtTot=           0 NUsed=           0 NTot=          32
 NSgBfM=   306   306   306   306   306 MxSgAt=    14 MxSgA2=    14.
 Leave Link  302 at Tue Apr 23 21:55:10 2019, MaxMem=   671088640 cpu:               5.6 elap:               0.3
 (Enter /shared/centos7/gaussian/g16/l303.exe)
 DipDrv:  MaxL=1.
 Leave Link  303 at Tue Apr 23 21:55:10 2019, MaxMem=   671088640 cpu:               0.5 elap:               0.0
 (Enter /shared/centos7/gaussian/g16/l401.exe)
 ExpMin= 4.38D-02 ExpMax= 8.59D+03 ExpMxC= 1.30D+03 IAcc=3 IRadAn=         5 AccDes= 0.00D+00
 Harris functional with IExCor= 1009 and IRadAn=       5 diagonalized for initial guess.
 HarFok:  IExCor= 1009 AccDes= 0.00D+00 IRadAn=         5 IDoV= 1 UseB2=F ITyADJ=14
 ICtDFT=  3500011 ScaDFX=  1.000000  1.000000  1.000000  1.000000
 FoFCou: FMM=F IPFlag=           0 FMFlag=      100000 FMFlg1=           0
         NFxFlg=           0 DoJE=T BraDBF=F KetDBF=T FulRan=T
         wScrn=  0.000000 ICntrl=       500 IOpCl=  0 I1Cent=   200000004 NGrid=           0
         NMat0=    1 NMatS0=      1 NMatT0=    0 NMatD0=    1 NMtDS0=    0 NMtDT0=    0
 Petite list used in FoFCou.
 Harris En= -307.574768962630    
 JPrj=0 DoOrth=F DoCkMO=F.
 Leave Link  401 at Tue Apr 23 21:55:11 2019, MaxMem=   671088640 cpu:              20.0 elap:               1.0
 (Enter /shared/centos7/gaussian/g16/l502.exe)
 Integral symmetry usage will be decided dynamically.
 Closed shell SCF:
 Using DIIS extrapolation, IDIIS=  1040.
 NGot=   671088640 LenX=   670892442 LenY=   670798365
 Requested convergence on RMS density matrix=1.00D-08 within 128 cycles.
 Requested convergence on MAX density matrix=1.00D-06.
 Requested convergence on             energy=1.00D-06.
 No special actions if energy rises.
 Fock matrices will be formed incrementally for  20 cycles.

 Cycle   1  Pass 1  IDiag  1:
 FoFJK:  IHMeth= 1 ICntrl=       0 DoSepK=F KAlg= 0 I1Cent=           0 FoldK=F
 IRaf= 960000000 NMat=       1 IRICut=       1 DoRegI=T DoRafI=F ISym2E= 0 IDoP0=0 IntGTp=1.
 FoFCou: FMM=F IPFlag=           0 FMFlag=      100000 FMFlg1=           0
         NFxFlg=           0 DoJE=F BraDBF=F KetDBF=F FulRan=T
         wScrn=  0.000000 ICntrl=         0 IOpCl=  0 I1Cent=           0 NGrid=           0
         NMat0=    1 NMatS0=      1 NMatT0=    0 NMatD0=    1 NMtDS0=    0 NMtDT0=    0
 Symmetry not used in FoFCou.
 E= -307.466600672736    
 DIIS: error= 3.26D-02 at cycle   1 NSaved=   1.
 NSaved= 1 IEnMin= 1 EnMin= -307.466600672736     IErMin= 1 ErrMin= 3.26D-02
 ErrMax= 3.26D-02  0.00D+00 EMaxC= 1.00D-01 BMatC= 2.86D-01 BMatP= 2.86D-01
 IDIUse=3 WtCom= 6.74D-01 WtEn= 3.26D-01
 Coeff-Com:  0.100D+01
 Coeff-En:   0.100D+01
 Coeff:      0.100D+01
 Gap=     0.322 Goal=   None    Shift=    0.000
 GapD=    0.322 DampG=1.000 DampE=0.500 DampFc=0.5000 IDamp=-1.
 Damping current iteration by 5.00D-01
 RMSDP=2.70D-03 MaxDP=1.09D-01              OVMax= 1.90D-01

 Cycle   2  Pass 1  IDiag  1:
 RMSU=  1.32D-03    CP:  9.71D-01
 E= -307.566995409290     Delta-E=       -0.100394736554 Rises=F Damp=T
 DIIS: error= 5.85D-03 at cycle   2 NSaved=   2.
 NSaved= 2 IEnMin= 2 EnMin= -307.566995409290     IErMin= 2 ErrMin= 5.85D-03
 ErrMax= 5.85D-03  0.00D+00 EMaxC= 1.00D-01 BMatC= 2.29D-02 BMatP= 2.86D-01
 IDIUse=3 WtCom= 9.41D-01 WtEn= 5.85D-02
 Coeff-Com: -0.253D-01 0.103D+01
 Coeff-En:   0.000D+00 0.100D+01
 Coeff:     -0.238D-01 0.102D+01
 Gap=     0.388 Goal=   None    Shift=    0.000
 RMSDP=1.08D-03 MaxDP=8.07D-02 DE=-1.00D-01 OVMax= 1.12D-01

 Cycle   3  Pass 1  IDiag  1:
 RMSU=  1.04D-03    CP:  9.42D-01  9.57D-01
 E= -307.665118869120     Delta-E=       -0.098123459830 Rises=F Damp=F
 DIIS: error= 7.46D-03 at cycle   3 NSaved=   3.
 NSaved= 3 IEnMin= 3 EnMin= -307.665118869120     IErMin= 2 ErrMin= 5.85D-03
 ErrMax= 7.46D-03  0.00D+00 EMaxC= 1.00D-01 BMatC= 1.57D-02 BMatP= 2.29D-02
 IDIUse=3 WtCom= 9.25D-01 WtEn= 7.46D-02
 Coeff-Com: -0.816D-01 0.486D+00 0.596D+00
 Coeff-En:   0.000D+00 0.000D+00 0.100D+01
 Coeff:     -0.755D-01 0.450D+00 0.626D+00
 Gap=     0.369 Goal=   None    Shift=    0.000
 RMSDP=3.85D-04 MaxDP=1.59D-02 DE=-9.81D-02 OVMax= 4.50D-02

 Cycle   4  Pass 1  IDiag  1:
 RMSU=  3.64D-04    CP:  9.43D-01  1.04D+00  9.41D-01
 E= -307.674247245367     Delta-E=       -0.009128376247 Rises=F Damp=F
 DIIS: error= 3.35D-03 at cycle   4 NSaved=   4.
 NSaved= 4 IEnMin= 4 EnMin= -307.674247245367     IErMin= 4 ErrMin= 3.35D-03
 ErrMax= 3.35D-03  0.00D+00 EMaxC= 1.00D-01 BMatC= 2.86D-03 BMatP= 1.57D-02
 IDIUse=3 WtCom= 9.67D-01 WtEn= 3.35D-02
 Coeff-Com: -0.292D-01 0.814D-01 0.331D+00 0.617D+00
 Coeff-En:   0.000D+00 0.000D+00 0.151D+00 0.849D+00
 Coeff:     -0.282D-01 0.787D-01 0.325D+00 0.624D+00
 Gap=     0.367 Goal=   None    Shift=    0.000
 RMSDP=1.36D-04 MaxDP=5.31D-03 DE=-9.13D-03 OVMax= 1.17D-02

 Cycle   5  Pass 1  IDiag  1:
 RMSU=  6.53D-05    CP:  9.40D-01  1.02D+00  1.00D+00  7.41D-01
 E= -307.676314094250     Delta-E=       -0.002066848883 Rises=F Damp=F
 DIIS: error= 4.16D-04 at cycle   5 NSaved=   5.
 NSaved= 5 IEnMin= 5 EnMin= -307.676314094250     IErMin= 5 ErrMin= 4.16D-04
 ErrMax= 4.16D-04  0.00D+00 EMaxC= 1.00D-01 BMatC= 5.71D-05 BMatP= 2.86D-03
 IDIUse=3 WtCom= 9.96D-01 WtEn= 4.16D-03
 Coeff-Com: -0.703D-02 0.132D-01 0.103D+00 0.241D+00 0.650D+00
 Coeff-En:   0.000D+00 0.000D+00 0.000D+00 0.000D+00 0.100D+01
 Coeff:     -0.700D-02 0.131D-01 0.102D+00 0.240D+00 0.651D+00
 Gap=     0.367 Goal=   None    Shift=    0.000
 RMSDP=2.30D-05 MaxDP=1.12D-03 DE=-2.07D-03 OVMax= 2.30D-03

 Cycle   6  Pass 1  IDiag  1:
 RMSU=  1.96D-05    CP:  9.39D-01  1.02D+00  1.01D+00  7.62D-01  9.38D-01
 E= -307.676353115760     Delta-E=       -0.000039021510 Rises=F Damp=F
 DIIS: error= 1.28D-04 at cycle   6 NSaved=   6.
 NSaved= 6 IEnMin= 6 EnMin= -307.676353115760     IErMin= 6 ErrMin= 1.28D-04
 ErrMax= 1.28D-04  0.00D+00 EMaxC= 1.00D-01 BMatC= 7.45D-06 BMatP= 5.71D-05
 IDIUse=3 WtCom= 9.99D-01 WtEn= 1.28D-03
 Coeff-Com: -0.185D-03-0.233D-02 0.150D-01 0.468D-01 0.296D+00 0.645D+00
 Coeff-En:   0.000D+00 0.000D+00 0.000D+00 0.000D+00 0.000D+00 0.100D+01
 Coeff:     -0.185D-03-0.233D-02 0.150D-01 0.467D-01 0.296D+00 0.645D+00
 Gap=     0.367 Goal=   None    Shift=    0.000
 RMSDP=9.01D-06 MaxDP=4.00D-04 DE=-3.90D-05 OVMax= 4.91D-04

 Cycle   7  Pass 1  IDiag  1:
 RMSU=  6.38D-06    CP:  9.39D-01  1.01D+00  1.01D+00  7.68D-01  9.92D-01
                    CP:  9.86D-01
 E= -307.676358818182     Delta-E=       -0.000005702422 Rises=F Damp=F
 DIIS: error= 4.10D-05 at cycle   7 NSaved=   7.
 NSaved= 7 IEnMin= 7 EnMin= -307.676358818182     IErMin= 7 ErrMin= 4.10D-05
 ErrMax= 4.10D-05  0.00D+00 EMaxC= 1.00D-01 BMatC= 4.06D-07 BMatP= 7.45D-06
 IDIUse=1 WtCom= 1.00D+00 WtEn= 0.00D+00
 Coeff-Com:  0.113D-02-0.266D-02-0.101D-01-0.241D-01-0.133D-01 0.127D+00
 Coeff-Com:  0.922D+00
 Coeff:      0.113D-02-0.266D-02-0.101D-01-0.241D-01-0.133D-01 0.127D+00
 Coeff:      0.922D+00
 Gap=     0.367 Goal=   None    Shift=    0.000
 RMSDP=4.27D-06 MaxDP=1.27D-04 DE=-5.70D-06 OVMax= 3.89D-04

 Cycle   8  Pass 1  IDiag  1:
 RMSU=  2.42D-06    CP:  9.39D-01  1.01D+00  1.01D+00  7.68D-01  1.02D+00
                    CP:  1.07D+00  1.09D+00
 E= -307.676359347556     Delta-E=       -0.000000529374 Rises=F Damp=F
 DIIS: error= 1.29D-05 at cycle   8 NSaved=   8.
 NSaved= 8 IEnMin= 8 EnMin= -307.676359347556     IErMin= 8 ErrMin= 1.29D-05
 ErrMax= 1.29D-05  0.00D+00 EMaxC= 1.00D-01 BMatC= 7.18D-08 BMatP= 4.06D-07
 IDIUse=1 WtCom= 1.00D+00 WtEn= 0.00D+00
 Coeff-Com:  0.436D-03-0.803D-03-0.445D-02-0.131D-01-0.299D-01-0.176D-01
 Coeff-Com:  0.332D+00 0.734D+00
 Coeff:      0.436D-03-0.803D-03-0.445D-02-0.131D-01-0.299D-01-0.176D-01
 Coeff:      0.332D+00 0.734D+00
 Gap=     0.367 Goal=   None    Shift=    0.000
 RMSDP=1.10D-06 MaxDP=3.21D-05 DE=-5.29D-07 OVMax= 9.13D-05

 Cycle   9  Pass 1  IDiag  1:
 RMSU=  7.94D-07    CP:  9.39D-01  1.01D+00  1.01D+00  7.67D-01  1.03D+00
                    CP:  1.08D+00  1.16D+00  1.04D+00
 E= -307.676359425675     Delta-E=       -0.000000078119 Rises=F Damp=F
 DIIS: error= 4.56D-06 at cycle   9 NSaved=   9.
 NSaved= 9 IEnMin= 9 EnMin= -307.676359425675     IErMin= 9 ErrMin= 4.56D-06
 ErrMax= 4.56D-06  0.00D+00 EMaxC= 1.00D-01 BMatC= 3.66D-09 BMatP= 7.18D-08
 IDIUse=1 WtCom= 1.00D+00 WtEn= 0.00D+00
 Coeff-Com: -0.766D-04 0.189D-03 0.878D-03 0.119D-02-0.147D-02-0.154D-01
 Coeff-Com: -0.664D-01 0.668D-01 0.101D+01
 Coeff:     -0.766D-04 0.189D-03 0.878D-03 0.119D-02-0.147D-02-0.154D-01
 Coeff:     -0.664D-01 0.668D-01 0.101D+01
 Gap=     0.367 Goal=   None    Shift=    0.000
 RMSDP=4.11D-07 MaxDP=1.61D-05 DE=-7.81D-08 OVMax= 4.17D-05

 Cycle  10  Pass 1  IDiag  1:
 RMSU=  2.09D-07    CP:  9.39D-01  1.01D+00  1.01D+00  7.66D-01  1.03D+00
                    CP:  1.07D+00  1.17D+00  1.13D+00  1.17D+00
 E= -307.676359431256     Delta-E=       -0.000000005581 Rises=F Damp=F
 DIIS: error= 5.83D-07 at cycle  10 NSaved=  10.
 NSaved=10 IEnMin=10 EnMin= -307.676359431256     IErMin=10 ErrMin= 5.83D-07
 ErrMax= 5.83D-07  0.00D+00 EMaxC= 1.00D-01 BMatC= 1.38D-10 BMatP= 3.66D-09
 IDIUse=1 WtCom= 1.00D+00 WtEn= 0.00D+00
 Coeff-Com: -0.277D-04 0.598D-04 0.341D-03 0.765D-03 0.101D-02-0.948D-03
 Coeff-Com: -0.253D-01-0.295D-01 0.148D+00 0.906D+00
 Coeff:     -0.277D-04 0.598D-04 0.341D-03 0.765D-03 0.101D-02-0.948D-03
 Coeff:     -0.253D-01-0.295D-01 0.148D+00 0.906D+00
 Gap=     0.367 Goal=   None    Shift=    0.000
 RMSDP=8.43D-08 MaxDP=3.97D-06 DE=-5.58D-09 OVMax= 7.58D-06

 Cycle  11  Pass 1  IDiag  1:
 RMSU=  4.02D-08    CP:  9.39D-01  1.01D+00  1.01D+00  7.66D-01  1.03D+00
                    CP:  1.07D+00  1.17D+00  1.15D+00  1.22D+00  1.07D+00
 E= -307.676359431440     Delta-E=       -0.000000000184 Rises=F Damp=F
 DIIS: error= 2.56D-07 at cycle  11 NSaved=  11.
 NSaved=11 IEnMin=11 EnMin= -307.676359431440     IErMin=11 ErrMin= 2.56D-07
 ErrMax= 2.56D-07  0.00D+00 EMaxC= 1.00D-01 BMatC= 2.23D-11 BMatP= 1.38D-10
 IDIUse=1 WtCom= 1.00D+00 WtEn= 0.00D+00
 Coeff-Com: -0.381D-05 0.638D-05 0.696D-04 0.188D-03 0.442D-03 0.609D-03
 Coeff-Com: -0.439D-02-0.145D-01-0.162D-01 0.291D+00 0.742D+00
 Coeff:     -0.381D-05 0.638D-05 0.696D-04 0.188D-03 0.442D-03 0.609D-03
 Coeff:     -0.439D-02-0.145D-01-0.162D-01 0.291D+00 0.742D+00
 Gap=     0.367 Goal=   None    Shift=    0.000
 RMSDP=2.02D-08 MaxDP=9.58D-07 DE=-1.84D-10 OVMax= 1.65D-06

 Cycle  12  Pass 1  IDiag  1:
 RMSU=  1.44D-08    CP:  9.39D-01  1.01D+00  1.01D+00  7.66D-01  1.03D+00
                    CP:  1.07D+00  1.17D+00  1.15D+00  1.23D+00  1.13D+00
                    CP:  1.01D+00
 E= -307.676359431459     Delta-E=       -0.000000000020 Rises=F Damp=F
 DIIS: error= 7.65D-08 at cycle  12 NSaved=  12.
 NSaved=12 IEnMin=12 EnMin= -307.676359431459     IErMin=12 ErrMin= 7.65D-08
 ErrMax= 7.65D-08  0.00D+00 EMaxC= 1.00D-01 BMatC= 1.92D-12 BMatP= 2.23D-11
 IDIUse=1 WtCom= 1.00D+00 WtEn= 0.00D+00
 Coeff-Com:  0.197D-05-0.427D-05-0.132D-04-0.283D-04 0.222D-04 0.207D-03
 Coeff-Com:  0.137D-02-0.965D-03-0.201D-01-0.164D-01 0.221D+00 0.815D+00
 Coeff:      0.197D-05-0.427D-05-0.132D-04-0.283D-04 0.222D-04 0.207D-03
 Coeff:      0.137D-02-0.965D-03-0.201D-01-0.164D-01 0.221D+00 0.815D+00
 Gap=     0.367 Goal=   None    Shift=    0.000
 RMSDP=6.15D-09 MaxDP=2.25D-07 DE=-1.97D-11 OVMax= 3.72D-07

 SCF Done:  E(RM062X) =  -307.676359431     A.U. after   12 cycles
            NFock= 12  Conv=0.61D-08     -V/T= 2.0036
 KE= 3.065735887955D+02 PE=-1.212779270351D+03 EE= 3.520159429690D+02
 Leave Link  502 at Tue Apr 23 21:55:40 2019, MaxMem=   671088640 cpu:             583.7 elap:              29.3
 (Enter /shared/centos7/gaussian/g16/l801.exe)
 DoSCS=F DFT=T ScalE2(SS,OS)=  1.000000  1.000000
 Range of M.O.s used for correlation:     1   276
 NBasis=   276 NAE=    24 NBE=    24 NFC=     0 NFV=     0
 NROrb=    276 NOA=    24 NOB=    24 NVA=   252 NVB=   252

 **** Warning!!: The largest alpha MO coefficient is  0.57774287D+02

 Leave Link  801 at Tue Apr 23 21:55:40 2019, MaxMem=   671088640 cpu:               0.5 elap:               0.0
 (Enter /shared/centos7/gaussian/g16/l1101.exe)
 Using compressed storage, NAtomX=    14.
 Will process     15 centers per pass.
 Leave Link 1101 at Tue Apr 23 21:55:41 2019, MaxMem=   671088640 cpu:              13.6 elap:               0.7
 (Enter /shared/centos7/gaussian/g16/l1102.exe)
 Symmetrizing basis deriv contribution to polar:
 IMax=3 JMax=2 DiffMx= 0.00D+00
 Leave Link 1102 at Tue Apr 23 21:55:41 2019, MaxMem=   671088640 cpu:               0.5 elap:               0.1
 (Enter /shared/centos7/gaussian/g16/l1110.exe)
 Forming Gx(P) for the SCF density, NAtomX=    14.
 Integral derivatives from FoFJK, PRISM(SPDF).
 Do as many integral derivatives as possible in FoFJK.
 G2DrvN: MDV=     671087496.
 G2DrvN: will do    15 centers at a time, making    1 passes.
 Calling FoFCou, ICntrl=  3107 FMM=F I1Cent=   0 AccDes= 0.00D+00.
 FoFJK:  IHMeth= 1 ICntrl=    3107 DoSepK=F KAlg= 0 I1Cent=           0 FoldK=F
 IRaf=         0 NMat=       1 IRICut=       1 DoRegI=T DoRafI=F ISym2E= 0 IDoP0=0 IntGTp=1.
 FoFCou: FMM=F IPFlag=           0 FMFlag=      100000 FMFlg1=           0
         NFxFlg=           0 DoJE=F BraDBF=F KetDBF=F FulRan=T
         wScrn=  0.000000 ICntrl=      3107 IOpCl=  0 I1Cent=           0 NGrid=           0
         NMat0=    1 NMatS0=      1 NMatT0=    0 NMatD0=    1 NMtDS0=    0 NMtDT0=    0
 Symmetry not used in FoFCou.
 End of G2Drv F.D. properties file   721 does not exist.
 End of G2Drv F.D. properties file   722 does not exist.
 End of G2Drv F.D. properties file   788 does not exist.
 Leave Link 1110 at Tue Apr 23 21:56:34 2019, MaxMem=   671088640 cpu:            1057.7 elap:              52.9
 (Enter /shared/centos7/gaussian/g16/l1002.exe)
 Minotr:  Closed shell wavefunction.
          IDoAtm=11111111111111
          Direct CPHF calculation.
          Differentiating once with respect to nuclear coordinates.
          Requested convergence is 1.0D-08 RMS, and 1.0D-07 maximum.
          Secondary convergence is 1.0D-12 RMS, and 1.0D-12 maximum.
          NewPWx=T KeepS1=F KeepF1=F KeepIn=T MapXYZ=F SortEE=F KeepMc=T.
         4271 words used for storage of precomputed grid.
 Two-electron integrals replicated using symmetry.
          MDV=     671088640 using IRadAn=       1.
          Solving linear equations simultaneously, MaxMat=     380.
 FoF2E skips out because all densities are zero.
 CalDSu exits because no D1Ps are significant.
 FoFJK:  IHMeth= 1 ICntrl=       0 DoSepK=F KAlg= 0 I1Cent=           0 FoldK=F
 IRaf= 940000000 NMat=      42 IRICut=     105 DoRegI=T DoRafI=T ISym2E= 2 IDoP0=3 IntGTp=3.
 FoFCou: FMM=F IPFlag=           0 FMFlag=      100000 FMFlg1=           0
         NFxFlg=           0 DoJE=F BraDBF=F KetDBF=F FulRan=T
         wScrn=  0.000000 ICntrl=         0 IOpCl=  0 I1Cent=           0 NGrid=           0
         NMat0=   42 NMatS0=     42 NMatT0=    0 NMatD0=   42 NMtDS0=    0 NMtDT0=    0
 Integrals replicated using symmetry in FoFCou.
 Raff kept on since  92.59% of shell-pairs survive, threshold=   0.20 IRatSp=93.
          There are    45 degrees of freedom in the 1st order CPHF.  IDoFFX=6 NUNeed=     0.
     39 vectors produced by pass  0 Test12= 1.34D-14 2.22D-09 XBig12= 7.91D-02 6.87D-02.
 AX will form    39 AO Fock derivatives at one time.
     39 vectors produced by pass  1 Test12= 1.34D-14 2.22D-09 XBig12= 8.13D-03 3.44D-02.
     39 vectors produced by pass  2 Test12= 1.34D-14 2.22D-09 XBig12= 2.21D-04 2.77D-03.
     39 vectors produced by pass  3 Test12= 1.34D-14 2.22D-09 XBig12= 1.85D-06 2.72D-04.
     39 vectors produced by pass  4 Test12= 1.34D-14 2.22D-09 XBig12= 1.63D-08 1.68D-05.
     39 vectors produced by pass  5 Test12= 1.34D-14 2.22D-09 XBig12= 9.28D-11 1.16D-06.
     23 vectors produced by pass  6 Test12= 1.34D-14 2.22D-09 XBig12= 3.50D-13 7.98D-08.
      4 vectors produced by pass  7 Test12= 1.34D-14 2.22D-09 XBig12= 1.46D-15 5.22D-09.
 InvSVY:  IOpt=1 It=  1 EMax= 1.55D-15
 Solved reduced A of dimension   261 with    39 vectors.
 End of Minotr F.D. properties file   721 does not exist.
 End of Minotr F.D. properties file   722 does not exist.
 End of Minotr F.D. properties file   788 does not exist.
 Leave Link 1002 at Tue Apr 23 21:57:48 2019, MaxMem=   671088640 cpu:            1473.5 elap:              73.7
 (Enter /shared/centos7/gaussian/g16/l601.exe)
 Copying SCF densities to generalized density rwf, IOpCl= 0 IROHF=0.

 **********************************************************************

            Population analysis using the SCF density.

 **********************************************************************

 Orbital symmetries:
       Occupied  (A) (A) (A) (A) (A) (A) (A) (A) (A) (A) (A) (A)
                 (A) (A) (A) (A) (A) (A) (A) (A) (A) (A) (A) (A)
       Virtual   (A) (A) (A) (A) (A) (A) (A) (A) (A) (A) (A) (A)
                 (A) (A) (A) (A) (A) (A) (A) (A) (A) (A) (A) (A)
                 (A) (A) (A) (A) (A) (A) (A) (A) (A) (A) (A) (A)
                 (A) (A) (A) (A) (A) (A) (A) (A) (A) (A) (A) (A)
                 (A) (A) (A) (A) (A) (A) (A) (A) (A) (A) (A) (A)
                 (A) (A) (A) (A) (A) (A) (A) (A) (A) (A) (A) (A)
                 (A) (A) (A) (A) (A) (A) (A) (A) (A) (A) (A) (A)
                 (A) (A) (A) (A) (A) (A) (A) (A) (A) (A) (A) (A)
                 (A) (A) (A) (A) (A) (A) (A) (A) (A) (A) (A) (A)
                 (A) (A) (A) (A) (A) (A) (A) (A) (A) (A) (A) (A)
                 (A) (A) (A) (A) (A) (A) (A) (A) (A) (A) (A) (A)
                 (A) (A) (A) (A) (A) (A) (A) (A) (A) (A) (A) (A)
                 (A) (A) (A) (A) (A) (A) (A) (A) (A) (A) (A) (A)
                 (A) (A) (A) (A) (A) (A) (A) (A) (A) (A) (A) (A)
                 (A) (A) (A) (A) (A) (A) (A) (A) (A) (A) (A) (A)
                 (A) (A) (A) (A) (A) (A) (A) (A) (A) (A) (A) (A)
                 (A) (A) (A) (A) (A) (A) (A) (A) (A) (A) (A) (A)
                 (A) (A) (A) (A) (A) (A) (A) (A) (A) (A) (A) (A)
                 (A) (A) (A) (A) (A) (A) (A) (A) (A) (A) (A) (A)
                 (A) (A) (A) (A) (A) (A) (A) (A) (A) (A) (A) (A)
                 (A) (A) (A) (A) (A) (A) (A) (A) (A) (A) (A) (A)
 The electronic state is 1-A.
 Alpha  occ. eigenvalues --  -19.66864 -19.61279 -10.66806 -10.58922 -10.55063
 Alpha  occ. eigenvalues --  -10.52800  -1.23856  -1.14353  -0.89349  -0.82387
 Alpha  occ. eigenvalues --   -0.73252  -0.64607  -0.58973  -0.58005  -0.56227
 Alpha  occ. eigenvalues --   -0.52482  -0.50589  -0.46018  -0.44640  -0.44048
 Alpha  occ. eigenvalues --   -0.42653  -0.41442  -0.37843  -0.35594
 Alpha virt. eigenvalues --    0.01131   0.02431   0.03677   0.03960   0.05005
 Alpha virt. eigenvalues --    0.05090   0.05753   0.06577   0.08384   0.08734
 Alpha virt. eigenvalues --    0.09016   0.09734   0.10542   0.12387   0.14286
 Alpha virt. eigenvalues --    0.15262   0.17996   0.19119   0.20012   0.20068
 Alpha virt. eigenvalues --    0.21602   0.22426   0.23004   0.23324   0.24349
 Alpha virt. eigenvalues --    0.26440   0.27718   0.28357   0.28444   0.29376
 Alpha virt. eigenvalues --    0.30486   0.32095   0.33755   0.34550   0.36719
 Alpha virt. eigenvalues --    0.38665   0.39658   0.41468   0.44371   0.47140
 Alpha virt. eigenvalues --    0.47821   0.49382   0.50520   0.51628   0.53836
 Alpha virt. eigenvalues --    0.54465   0.55500   0.56197   0.56570   0.57699
 Alpha virt. eigenvalues --    0.61099   0.61349   0.62389   0.63663   0.66426
 Alpha virt. eigenvalues --    0.67341   0.68335   0.70968   0.71670   0.75389
 Alpha virt. eigenvalues --    0.76859   0.78700   0.80793   0.84058   0.84607
 Alpha virt. eigenvalues --    0.87199   0.89469   0.90646   0.92160   0.92744
 Alpha virt. eigenvalues --    0.98539   1.01188   1.02647   1.05900   1.06009
 Alpha virt. eigenvalues --    1.09543   1.10682   1.12093   1.12929   1.13628
 Alpha virt. eigenvalues --    1.16473   1.17512   1.17626   1.18613   1.21358
 Alpha virt. eigenvalues --    1.22797   1.23642   1.24525   1.24526   1.24705
 Alpha virt. eigenvalues --    1.28861   1.30112   1.32922   1.34374   1.35143
 Alpha virt. eigenvalues --    1.39603   1.41985   1.43102   1.43795   1.45847
 Alpha virt. eigenvalues --    1.46727   1.47133   1.49427   1.53067   1.55160
 Alpha virt. eigenvalues --    1.58088   1.59775   1.60736   1.63247   1.65487
 Alpha virt. eigenvalues --    1.67533   1.70031   1.72868   1.77335   1.83305
 Alpha virt. eigenvalues --    1.85140   1.93470   2.06418   2.09906   2.12304
 Alpha virt. eigenvalues --    2.27991   2.35032   2.39289   2.40186   2.49282
 Alpha virt. eigenvalues --    2.52655   2.58107   2.59919   2.66152   2.67914
 Alpha virt. eigenvalues --    2.74598   2.75487   2.79974   2.81265   2.83996
 Alpha virt. eigenvalues --    2.84068   2.84572   2.94351   2.96122   2.98581
 Alpha virt. eigenvalues --    3.00951   3.02277   3.03394   3.07775   3.10533
 Alpha virt. eigenvalues --    3.11399   3.13086   3.13791   3.15341   3.18304
 Alpha virt. eigenvalues --    3.19895   3.24957   3.26040   3.26850   3.28919
 Alpha virt. eigenvalues --    3.31999   3.34992   3.40342   3.40652   3.43068
 Alpha virt. eigenvalues --    3.45079   3.49525   3.51629   3.51718   3.52308
 Alpha virt. eigenvalues --    3.52966   3.56317   3.57860   3.61177   3.61304
 Alpha virt. eigenvalues --    3.67458   3.67958   3.72392   3.77529   3.82849
 Alpha virt. eigenvalues --    3.83163   3.86961   3.87392   3.91245   3.94899
 Alpha virt. eigenvalues --    3.95484   3.97410   4.00604   4.01696   4.02026
 Alpha virt. eigenvalues --    4.06040   4.12702   4.13914   4.17716   4.18664
 Alpha virt. eigenvalues --    4.26510   4.26859   4.28828   4.30996   4.31017
 Alpha virt. eigenvalues --    4.32104   4.32633   4.34826   4.36443   4.43096
 Alpha virt. eigenvalues --    4.48241   4.49804   4.51361   4.54089   4.55665
 Alpha virt. eigenvalues --    4.60858   4.72684   4.91931   4.93145   5.08308
 Alpha virt. eigenvalues --    5.11823   5.14951   5.20612   5.20814   5.23681
 Alpha virt. eigenvalues --    5.27478   5.37357   5.40972   5.45126   5.50689
 Alpha virt. eigenvalues --    5.53213   5.56706   5.57334   5.58222   5.65217
 Alpha virt. eigenvalues --    5.67244   5.69380   5.74852   5.80629   6.00291
 Alpha virt. eigenvalues --    6.09630   6.38784   6.45962   6.69865   6.83660
 Alpha virt. eigenvalues --    6.96610   7.06543   7.11743   7.17800   7.19469
 Alpha virt. eigenvalues --    7.25786   7.31779   7.55376   7.67683   7.77757
 Alpha virt. eigenvalues --    7.83484  24.34337  24.43852  24.46702  24.86032
 Alpha virt. eigenvalues --   50.17733  50.31651
          Condensed to atoms (all electrons):
               1          2          3          4          5          6
     1  O    8.214803  -0.084625  -0.218002   0.008870   0.151226   0.216932
     2  O   -0.084625   8.213365   0.001397  -0.029710  -0.035571   0.348857
     3  C   -0.218002   0.001397   5.666628   0.094555  -0.061846  -0.133551
     4  C    0.008870  -0.029710   0.094555   5.176204  -0.013362   0.077215
     5  C    0.151226  -0.035571  -0.061846  -0.013362   4.967609  -0.107665
     6  C    0.216932   0.348857  -0.133551   0.077215  -0.107665   5.443027
     7  H    0.002455   0.000622   0.450856  -0.038743   0.001431  -0.048700
     8  H    0.002455   0.000623   0.450857  -0.038743   0.001431  -0.048700
     9  H    0.000084  -0.001578  -0.024636   0.412767  -0.000210  -0.006992
    10  H   -0.000608   0.001223  -0.078179   0.424389   0.000452   0.038413
    11  H    0.000084  -0.001578  -0.024636   0.412767  -0.000210  -0.006992
    12  H   -0.059014   0.003701   0.002346   0.000790   0.419178   0.017895
    13  H   -0.035578  -0.004396  -0.001458  -0.000948   0.431123   0.001857
    14  H   -0.035578  -0.004396  -0.001458  -0.000948   0.431123   0.001857
               7          8          9         10         11         12
     1  O    0.002455   0.002455   0.000084  -0.000608   0.000084  -0.059014
     2  O    0.000622   0.000623  -0.001578   0.001223  -0.001578   0.003701
     3  C    0.450856   0.450857  -0.024636  -0.078179  -0.024636   0.002346
     4  C   -0.038743  -0.038743   0.412767   0.424389   0.412767   0.000790
     5  C    0.001431   0.001431  -0.000210   0.000452  -0.000210   0.419178
     6  C   -0.048700  -0.048700  -0.006992   0.038413  -0.006992   0.017895
     7  H    0.517206  -0.037196   0.005409  -0.003517  -0.006671   0.000009
     8  H   -0.037196   0.517206  -0.006671  -0.003517   0.005409   0.000009
     9  H    0.005409  -0.006671   0.528099  -0.025290  -0.031323  -0.000002
    10  H   -0.003517  -0.003517  -0.025290   0.538139  -0.025290  -0.000000
    11  H   -0.006671   0.005409  -0.031323  -0.025290   0.528099  -0.000002
    12  H    0.000009   0.000009  -0.000002  -0.000000  -0.000002   0.533251
    13  H    0.000137  -0.000094   0.000012  -0.000001  -0.000006  -0.025077
    14  H   -0.000094   0.000137  -0.000006  -0.000001   0.000012  -0.025077
              13         14
     1  O   -0.035578  -0.035578
     2  O   -0.004396  -0.004396
     3  C   -0.001458  -0.001458
     4  C   -0.000948  -0.000948
     5  C    0.431123   0.431123
     6  C    0.001857   0.001857
     7  H    0.000137  -0.000094
     8  H   -0.000094   0.000137
     9  H    0.000012  -0.000006
    10  H   -0.000001  -0.000001
    11  H   -0.000006   0.000012
    12  H   -0.025077  -0.025077
    13  H    0.533186  -0.037521
    14  H   -0.037521   0.533186
 Mulliken charges:
               1
     1  O   -0.163503
     2  O   -0.407934
     3  C   -0.122874
     4  C   -0.485103
     5  C   -0.184709
     6  C    0.206547
     7  H    0.156796
     8  H    0.156796
     9  H    0.150337
    10  H    0.133789
    11  H    0.150337
    12  H    0.131995
    13  H    0.138764
    14  H    0.138764
 Sum of Mulliken charges =  -0.00000
 Mulliken charges with hydrogens summed into heavy atoms:
               1
     1  O   -0.163503
     2  O   -0.407934
     3  C    0.190718
     4  C   -0.050640
     5  C    0.224813
     6  C    0.206547
 APT charges:
               1
     1  O   -0.038120
     2  O   -0.401935
     3  C   -0.607962
     4  C   -1.314564
     5  C   -1.242519
     6  C    0.318047
     7  H    0.381585
     8  H    0.381585
     9  H    0.327564
    10  H    0.579113
    11  H    0.327564
    12  H    0.576269
    13  H    0.356688
    14  H    0.356688
 Sum of APT charges =  -0.00000
 APT charges with hydrogens summed into heavy atoms:
               1
     1  O   -0.038120
     2  O   -0.401935
     3  C    0.155207
     4  C   -0.080324
     5  C    0.047125
     6  C    0.318047
 Electronic spatial extent (au):  <R**2>=            688.1343
 Charge=             -0.0000 electrons
 Dipole moment (field-independent basis, Debye):
    X=              0.3634    Y=             -1.6693    Z=             -0.0000  Tot=              1.7084
 Quadrupole moment (field-independent basis, Debye-Ang):
   XX=            -30.8399   YY=            -41.3455   ZZ=            -35.8976
   XY=              1.4919   XZ=              0.0000   YZ=              0.0000
 Traceless Quadrupole moment (field-independent basis, Debye-Ang):
   XX=              5.1878   YY=             -5.3179   ZZ=              0.1301
   XY=              1.4919   XZ=              0.0000   YZ=              0.0000
 Octapole moment (field-independent basis, Debye-Ang**2):
  XXX=             19.2490  YYY=             -3.9887  ZZZ=             -0.0000  XYY=              0.1619
  XXY=             -0.2952  XXZ=             -0.0000  XZZ=              1.9761  YZZ=              0.8850
  YYZ=              0.0000  XYZ=             -0.0000
 Hexadecapole moment (field-independent basis, Debye-Ang**3):
 XXXX=           -660.1653 YYYY=           -165.1711 ZZZZ=            -54.7744 XXXY=             -2.8549
 XXXZ=              0.0000 YYYX=             -1.1329 YYYZ=             -0.0000 ZZZX=              0.0000
 ZZZY=             -0.0000 XXYY=           -139.3929 XXZZ=           -125.5855 YYZZ=            -33.0505
 XXYZ=             -0.0000 YYXZ=              0.0000 ZZXY=              0.7654
 N-N= 2.465133791555D+02 E-N=-1.212779277656D+03  KE= 3.065735887955D+02
  Exact polarizability:   0.000   0.000   0.000   0.000   0.000   0.000
 Approx polarizability:  63.729  -1.129  68.878   0.000   0.000  55.052
 No NMR shielding tensors so no spin-rotation constants.
 Leave Link  601 at Tue Apr 23 21:57:48 2019, MaxMem=   671088640 cpu:               5.5 elap:               0.3
 (Enter /shared/centos7/gaussian/g16/l701.exe)
 ... and contract with generalized density number  0.
 Compute integral second derivatives.
 Leave Link  701 at Tue Apr 23 21:57:48 2019, MaxMem=   671088640 cpu:               5.1 elap:               0.3
 (Enter /shared/centos7/gaussian/g16/l702.exe)
 L702 exits ... SP integral derivatives will be done elsewhere.
 Leave Link  702 at Tue Apr 23 21:57:48 2019, MaxMem=   671088640 cpu:               0.4 elap:               0.0
 (Enter /shared/centos7/gaussian/g16/l703.exe)
 Integral derivatives from FoFJK, PRISM(SPDF).
 Compute integral second derivatives, UseDBF=F ICtDFT=           0.
 Calling FoFJK, ICntrl=    100147 FMM=F ISym2X=0 I1Cent= 0 IOpClX= 0 NMat=1 NMatS=1 NMatT=0.
 FoFJK:  IHMeth= 1 ICntrl=  100147 DoSepK=F KAlg= 0 I1Cent=           0 FoldK=F
 IRaf=         0 NMat=       1 IRICut=       1 DoRegI=T DoRafI=F ISym2E= 0 IDoP0=0 IntGTp=1.
 FoFCou: FMM=F IPFlag=           0 FMFlag=      100000 FMFlg1=         800
         NFxFlg=           0 DoJE=F BraDBF=F KetDBF=F FulRan=T
         wScrn=  0.000000 ICntrl=    100147 IOpCl=  0 I1Cent=           0 NGrid=           0
         NMat0=    1 NMatS0=      1 NMatT0=    0 NMatD0=    1 NMtDS0=    0 NMtDT0=    0
 Symmetry not used in FoFCou.
 Leave Link  703 at Tue Apr 23 21:59:04 2019, MaxMem=   671088640 cpu:            1502.3 elap:              75.1
 (Enter /shared/centos7/gaussian/g16/l716.exe)
 Dipole        = 1.42991442D-01-6.56757120D-01-3.00369769D-07
 Polarizability= 0.00000000D+00 0.00000000D+00 0.00000000D+00
                 0.00000000D+00 0.00000000D+00 0.00000000D+00
 ***** Axes restored to original set *****
 -------------------------------------------------------------------
 Center     Atomic                   Forces (Hartrees/Bohr)
 Number     Number              X              Y              Z
 -------------------------------------------------------------------
      1        8           0.000000114    0.000000418   -0.000000011
      2        8          -0.000000361    0.000000183    0.000000000
      3        6           0.000000130   -0.000000271    0.000000016
      4        6          -0.000000052   -0.000000635   -0.000000005
      5        6          -0.000000081    0.000000642    0.000000004
      6        6           0.000000055   -0.000000130    0.000000007
      7        1           0.000000347   -0.000000250    0.000000006
      8        1           0.000000344   -0.000000241   -0.000000016
      9        1          -0.000000226   -0.000000595    0.000000012
     10        1           0.000000125   -0.000000825   -0.000000001
     11        1          -0.000000228   -0.000000599   -0.000000011
     12        1           0.000000195    0.000000879    0.000000000
     13        1          -0.000000180    0.000000713   -0.000000015
     14        1          -0.000000182    0.000000711    0.000000014
 -------------------------------------------------------------------
 Cartesian Forces:  Max     0.000000879 RMS     0.000000347
 FormGI is forming the generalized inverse of G from B-inverse, IUseBI=4.
 Leave Link  716 at Tue Apr 23 21:59:04 2019, MaxMem=   671088640 cpu:               0.5 elap:               0.0
 (Enter /shared/centos7/gaussian/g16/l103.exe)

 GradGradGradGradGradGradGradGradGradGradGradGradGradGradGradGradGradGrad
 Berny optimization.
 Red2BG is reusing G-inverse.
 Internal  Forces:  Max     0.000000108 RMS     0.000000024
 Search for a local minimum.
 Step number   1 out of a maximum of   65 on scan point     1 out of    37
 All quantities printed in internal units (Hartrees-Bohrs-Radians)
 RMS Force = .24481D-07 SwitMx=.10000D-02 MixMth= 2
 Mixed Optimization -- En-DIIS/RFO-DIIS
 Second derivative matrix not updated -- analytic derivatives used.
 ITU=  0
     Eigenvalues ---    0.01132   0.02339   0.03890   0.04122   0.04478
     Eigenvalues ---    0.05130   0.07559   0.08500   0.09974   0.12382
     Eigenvalues ---    0.13318   0.14615   0.15978   0.18470   0.18859
     Eigenvalues ---    0.19922   0.22061   0.25279   0.26792   0.31766
     Eigenvalues ---    0.33661   0.34444   0.34456   0.34505   0.34554
     Eigenvalues ---    0.34817   0.35405   0.35521   0.36784   0.39488
     Eigenvalues ---    0.48904   0.920581000.000001000.000001000.00000
     Eigenvalues --- 1000.000001000.000001000.000001000.000001000.00000
     Eigenvalues --- 1000.000001000.000001000.000001000.000001000.00000
     Eigenvalues --- 1000.000001000.000001000.000001000.000001000.00000
     Eigenvalues --- 1000.000001000.000001000.000001000.000001000.00000
 RFO step:  Lambda= 0.00000000D+00 EMin= 1.13241080D-02
 Linear search not attempted -- first point.
 Iteration  1 RMS(Cart)=  0.00000019 RMS(Int)=  0.00000000
 Iteration  1 RMS(Cart)=  0.00000000 RMS(Int)=  0.00000000
 ITry= 1 IFail=0 DXMaxC= 5.49D-07 DCOld= 1.00D+10 DXMaxT= 3.00D-01 DXLimC= 3.00D+00 Rises=F
 Variable       Old X    -DE/DX   Delta X   Delta X   Delta X     New X
                                 (Linear)    (Quad)   (Total)
    R1        2.69330  -0.00000   0.00000  -0.00000  -0.00000   2.69330
    R2        2.53553  -0.00000   0.00000  -0.00000  -0.00000   2.53553
    R3        2.26751   0.00000   0.00000   0.00000   0.00000   2.26751
    R4        2.87041  -0.00000   0.00000  -0.00000  -0.00000   2.87041
    R5        2.84730   0.00000   0.00000   0.00000   0.00000   2.84730
    R6        2.06245  -0.00000   0.00000  -0.00000  -0.00000   2.06245
    R7        2.06245  -0.00000   0.00000  -0.00000  -0.00000   2.06245
    R8        2.05639   0.00000   0.00000   0.00000   0.00000   2.05639
    R9        2.05656  -0.00000   0.00000  -0.00000  -0.00000   2.05656
   R10        2.05639   0.00000   0.00000   0.00000   0.00000   2.05639
   R11        2.04993   0.00000   0.00000   0.00000   0.00000   2.04993
   R12        2.05648   0.00000   0.00000   0.00000   0.00000   2.05648
   R13        2.05648   0.00000   0.00000   0.00000   0.00000   2.05648
    A1        2.01295  -0.00000   0.00000  -0.00000  -0.00000   2.01295
    A2        1.95939   0.00000   0.00000   0.00000   0.00000   1.95939
    A3        1.95185  -0.00000   0.00000   0.00000   0.00000   1.95185
    A4        1.95185   0.00000   0.00000  -0.00000  -0.00000   1.95185
    A5        1.87412  -0.00000   0.00000  -0.00000  -0.00000   1.87412
    A6        1.87412  -0.00000   0.00000  -0.00000  -0.00000   1.87412
    A7        1.84637   0.00000   0.00000   0.00000   0.00000   1.84637
    A8        1.93275   0.00000   0.00000   0.00000   0.00000   1.93275
    A9        1.92922  -0.00000   0.00000  -0.00000  -0.00000   1.92922
   A10        1.93275   0.00000   0.00000   0.00000   0.00000   1.93275
   A11        1.89652   0.00000   0.00000   0.00000   0.00000   1.89652
   A12        1.87464  -0.00000   0.00000  -0.00000  -0.00000   1.87464
   A13        1.89652  -0.00000   0.00000  -0.00000  -0.00000   1.89652
   A14        1.85011   0.00000   0.00000   0.00000   0.00000   1.85011
   A15        1.92635   0.00000   0.00000   0.00000   0.00000   1.92635
   A16        1.92635   0.00000   0.00000   0.00000   0.00000   1.92635
   A17        1.93056  -0.00000   0.00000  -0.00000  -0.00000   1.93056
   A18        1.93056  -0.00000   0.00000  -0.00000  -0.00000   1.93056
   A19        1.89987  -0.00000   0.00000  -0.00000  -0.00000   1.89987
   A20        2.14862  -0.00000   0.00000  -0.00000  -0.00000   2.14862
   A21        1.94408   0.00000   0.00000   0.00000   0.00000   1.94408
   A22        2.19049  -0.00000   0.00000  -0.00000  -0.00000   2.19049
    D1       -3.14159  -0.00000   0.00000   0.00000   0.00000  -3.14159
    D2       -1.05044   0.00000   0.00000   0.00000   0.00000  -1.05044
    D3        1.05044  -0.00000   0.00000   0.00000  -0.00000   1.05044
    D4       -0.00000   0.00000   0.00000   0.00000   0.00000  -0.00000
    D5        3.14159   0.00000   0.00000   0.00000   0.00000   3.14159
    D6       -1.03884  -0.00000   0.00000   0.00000   0.00000  -1.03884
    D7        3.14159  -0.00000   0.00000  -0.00000  -0.00000   3.14159
    D8        1.03884   0.00000   0.00000   0.00000   0.00000   1.03884
    D9        3.13636   0.00000   0.00000   0.00000   0.00000   3.13636
   D10        1.03361   0.00000   0.00000   0.00000   0.00000   1.03361
   D11       -1.06915   0.00000   0.00000   0.00000   0.00000  -1.06915
   D12        1.06915  -0.00000   0.00000  -0.00000  -0.00000   1.06915
   D13       -1.03361  -0.00000   0.00000  -0.00000  -0.00000  -1.03361
   D14       -3.13636   0.00000   0.00000  -0.00000  -0.00000  -3.13636
   D15        3.14159   0.00000   0.00000   0.00000   0.00000   3.14159
   D16       -0.00000   0.00000   0.00000   0.00000   0.00000  -0.00000
   D17       -0.98936   0.00000   0.00000   0.00000   0.00000  -0.98936
   D18        2.15223   0.00000   0.00000  -0.00000  -0.00000   2.15223
   D19        0.98936   0.00000   0.00000   0.00000   0.00000   0.98936
   D20       -2.15223   0.00000   0.00000   0.00000   0.00000  -2.15223
         Item               Value     Threshold  Converged?
 Maximum Force            0.000000     0.000450     YES
 RMS     Force            0.000000     0.000300     YES
 Maximum Displacement     0.000001     0.001800     YES
 RMS     Displacement     0.000000     0.001200     YES
 Predicted change in Energy=-4.252045D-14
 Optimization completed.
    -- Stationary point found.
                           ----------------------------
                           !   Optimized Parameters   !
                           ! (Angstroms and Degrees)  !
 --------------------------                            --------------------------
 ! Name  Definition              Value          Derivative Info.                !
 --------------------------------------------------------------------------------
 ! R1    R(1,5)                  1.4252         -DE/DX =    0.0                 !
 ! R2    R(1,6)                  1.3417         -DE/DX =    0.0                 !
 ! R3    R(2,6)                  1.1999         -DE/DX =    0.0                 !
 ! R4    R(3,4)                  1.519          -DE/DX =    0.0                 !
 ! R5    R(3,6)                  1.5067         -DE/DX =    0.0                 !
 ! R6    R(3,7)                  1.0914         -DE/DX =    0.0                 !
 ! R7    R(3,8)                  1.0914         -DE/DX =    0.0                 !
 ! R8    R(4,9)                  1.0882         -DE/DX =    0.0                 !
 ! R9    R(4,10)                 1.0883         -DE/DX =    0.0                 !
 ! R10   R(4,11)                 1.0882         -DE/DX =    0.0                 !
 ! R11   R(5,12)                 1.0848         -DE/DX =    0.0                 !
 ! R12   R(5,13)                 1.0882         -DE/DX =    0.0                 !
 ! R13   R(5,14)                 1.0882         -DE/DX =    0.0                 !
 ! A1    A(5,1,6)              115.3337         -DE/DX =    0.0                 !
 ! A2    A(4,3,6)              112.265          -DE/DX =    0.0                 !
 ! A3    A(4,3,7)              111.8328         -DE/DX =    0.0                 !
 ! A4    A(4,3,8)              111.8328         -DE/DX =    0.0                 !
 ! A5    A(6,3,7)              107.379          -DE/DX =    0.0                 !
 ! A6    A(6,3,8)              107.379          -DE/DX =    0.0                 !
 ! A7    A(7,3,8)              105.7892         -DE/DX =    0.0                 !
 ! A8    A(3,4,9)              110.7385         -DE/DX =    0.0                 !
 ! A9    A(3,4,10)             110.5363         -DE/DX =    0.0                 !
 ! A10   A(3,4,11)             110.7385         -DE/DX =    0.0                 !
 ! A11   A(9,4,10)             108.6625         -DE/DX =    0.0                 !
 ! A12   A(9,4,11)             107.409          -DE/DX =    0.0                 !
 ! A13   A(10,4,11)            108.6625         -DE/DX =    0.0                 !
 ! A14   A(1,5,12)             106.0037         -DE/DX =    0.0                 !
 ! A15   A(1,5,13)             110.3716         -DE/DX =    0.0                 !
 ! A16   A(1,5,14)             110.3716         -DE/DX =    0.0                 !
 ! A17   A(12,5,13)            110.6129         -DE/DX =    0.0                 !
 ! A18   A(12,5,14)            110.6129         -DE/DX =    0.0                 !
 ! A19   A(13,5,14)            108.8545         -DE/DX =    0.0                 !
 ! A20   A(1,6,2)              123.1066         -DE/DX =    0.0                 !
 ! A21   A(1,6,3)              111.3877         -DE/DX =    0.0                 !
 ! A22   A(2,6,3)              125.5057         -DE/DX =    0.0                 !
 ! D1    D(6,1,5,12)          -180.0            -DE/DX =    0.0                 !
 ! D2    D(6,1,5,13)           -60.186          -DE/DX =    0.0                 !
 ! D3    D(6,1,5,14)            60.186          -DE/DX =    0.0                 !
 ! D4    D(5,1,6,2)              0.0            -DE/DX =    0.0                 !
 ! D5    D(5,1,6,3)            180.0            -DE/DX =    0.0                 !
 ! D6    D(6,3,4,9)            -59.521          -DE/DX =    0.0                 !
 ! D7    D(6,3,4,10)           180.0            -DE/DX =    0.0                 !
 ! D8    D(6,3,4,11)            59.521          -DE/DX =    0.0                 !
 ! D9    D(7,3,4,9)            179.7004         -DE/DX =    0.0                 !
 ! D10   D(7,3,4,10)            59.2214         -DE/DX =    0.0                 !
 ! D11   D(7,3,4,11)           -61.2576         -DE/DX =    0.0                 !
 ! D12   D(8,3,4,9)             61.2575         -DE/DX =    0.0                 !
 ! D13   D(8,3,4,10)           -59.2214         -DE/DX =    0.0                 !
 ! D14   D(8,3,4,11)          -179.7004         -DE/DX =    0.0                 !
 ! D15   D(4,3,6,1)            179.9998         -DE/DX =    0.0                 !
 ! D16   D(4,3,6,2)             -0.0002         -DE/DX =    0.0                 !
 ! D17   D(7,3,6,1)            -56.6864         -DE/DX =    0.0                 !
 ! D18   D(7,3,6,2)            123.3136         -DE/DX =    0.0                 !
 ! D19   D(8,3,6,1)             56.6861         -DE/DX =    0.0                 !
 ! D20   D(8,3,6,2)           -123.3139         -DE/DX =    0.0                 !
 --------------------------------------------------------------------------------
 Lowest energy point so far.  Saving SCF results.
 Iteration  1 RMS(Cart)=  0.01897873 RMS(Int)=  0.01776104
 Iteration  2 RMS(Cart)=  0.00041138 RMS(Int)=  0.01775821
 Iteration  3 RMS(Cart)=  0.00000475 RMS(Int)=  0.01775821
 Iteration  4 RMS(Cart)=  0.00000007 RMS(Int)=  0.01775821
 Iteration  1 RMS(Cart)=  0.01251827 RMS(Int)=  0.01096780
 Iteration  2 RMS(Cart)=  0.00865117 RMS(Int)=  0.01212440
 Iteration  3 RMS(Cart)=  0.00581935 RMS(Int)=  0.01387469
 Iteration  4 RMS(Cart)=  0.00385931 RMS(Int)=  0.01531668
 Iteration  5 RMS(Cart)=  0.00255415 RMS(Int)=  0.01637177
 Iteration  6 RMS(Cart)=  0.00169682 RMS(Int)=  0.01711529
 Iteration  7 RMS(Cart)=  0.00113382 RMS(Int)=  0.01763165
 Iteration  8 RMS(Cart)=  0.00076212 RMS(Int)=  0.01798802
 Iteration  9 RMS(Cart)=  0.00051497 RMS(Int)=  0.01823331
 Iteration 10 RMS(Cart)=  0.00034950 RMS(Int)=  0.01840195
 Iteration 11 RMS(Cart)=  0.00023804 RMS(Int)=  0.01851786
 Iteration 12 RMS(Cart)=  0.00016258 RMS(Int)=  0.01859754
 Iteration 13 RMS(Cart)=  0.00011128 RMS(Int)=  0.01865233
 Iteration 14 RMS(Cart)=  0.00007631 RMS(Int)=  0.01869002
 Iteration 15 RMS(Cart)=  0.00005239 RMS(Int)=  0.01871596
 Iteration 16 RMS(Cart)=  0.00003601 RMS(Int)=  0.01873382
 Iteration 17 RMS(Cart)=  0.00002478 RMS(Int)=  0.01874612
 Iteration 18 RMS(Cart)=  0.00001706 RMS(Int)=  0.01875459
 Iteration 19 RMS(Cart)=  0.00001175 RMS(Int)=  0.01876043
 Iteration 20 RMS(Cart)=  0.00000809 RMS(Int)=  0.01876446
 Iteration 21 RMS(Cart)=  0.00000558 RMS(Int)=  0.01876724
 Iteration 22 RMS(Cart)=  0.00000385 RMS(Int)=  0.01876915
 Iteration 23 RMS(Cart)=  0.00000265 RMS(Int)=  0.01877047
 Iteration 24 RMS(Cart)=  0.00000183 RMS(Int)=  0.01877138
 Iteration 25 RMS(Cart)=  0.00000126 RMS(Int)=  0.01877201
 Iteration 26 RMS(Cart)=  0.00000087 RMS(Int)=  0.01877244
 GradGradGradGradGradGradGradGradGradGradGradGradGradGradGradGradGradGrad

 Leave Link  103 at Tue Apr 23 21:59:04 2019, MaxMem=   671088640 cpu:               1.2 elap:               0.1
 (Enter /shared/centos7/gaussian/g16/l202.exe)
                          Input orientation:                          
 ---------------------------------------------------------------------
 Center     Atomic      Atomic             Coordinates (Angstroms)
 Number     Number       Type             X           Y           Z
 ---------------------------------------------------------------------
      1          8           0        1.141543   -0.699541   -0.008608
      2          8           0        0.108322    1.274682    0.143179
      3          6           0       -1.211272   -0.742037    0.044036
      4          6           0       -2.458230    0.122643   -0.027508
      5          6           0        2.387010   -0.006732   -0.023111
      6          6           0        0.050812    0.080903    0.031749
      7          1           0       -1.206137   -1.388446   -0.835386
      8          1           0       -1.138967   -1.408987    0.904965
      9          1           0       -2.515527    0.798557    0.823531
     10          1           0       -3.348834   -0.502771   -0.036050
     11          1           0       -2.460042    0.722028   -0.935900
     12          1           0        3.154829   -0.772370   -0.055829
     13          1           0        2.451574    0.638198   -0.897321
     14          1           0        2.491805    0.602933    0.872257
 ---------------------------------------------------------------------
                    Distance matrix (angstroms):
                    1          2          3          4          5
     1  O    0.000000
     2  O    2.233415   0.000000
     3  C    2.353787   2.412118   0.000000
     4  C    3.692520   2.818424   1.519110   0.000000
     5  C    1.425266   2.619560   3.673257   4.846969   0.000000
     6  C    1.341796   1.200347   1.506730   2.510088   2.338485
     7  H    2.582587   3.126922   1.091445   2.122214   3.934416
     8  H    2.557079   3.055834   1.091443   2.226174   3.906425
     9  H    4.038678   2.752119   2.163822   1.088306   5.039858
    10  H    4.494770   3.891450   2.152402   1.088297   5.757267
    11  H    3.981476   2.840129   2.159442   1.088321   4.985799
    12  H    2.015156   3.675763   4.367348   5.684037   1.084812
    13  H    2.072568   2.641701   4.025872   5.012838   1.088277
    14  H    2.072576   2.581432   4.025875   5.054018   1.088281
                    6          7          8          9         10
     6  C    0.000000
     7  H    2.119157   0.000000
     8  H    2.097105   1.741767   0.000000
     9  H    2.779936   3.041297   2.602845   0.000000
    10  H    3.450053   2.452449   2.567148   1.768257   0.000000
    11  H    2.766184   2.456925   3.110506   1.761969   1.760628
    12  H    3.220352   4.472727   4.445794   5.949288   6.509278
    13  H    2.633896   4.182102   4.509012   5.259196   5.973971
    14  H    2.633897   4.533918   4.151072   5.011389   6.013374
                   11         12         13         14
    11  H    0.000000
    12  H    5.876609   0.000000
    13  H    4.912484   1.786723   0.000000
    14  H    5.272988   1.786730   1.770386   0.000000
 Stoichiometry    C4H8O2
 Framework group  C1[X(C4H8O2)]
 Deg. of freedom    36
 Full point group                 C1      NOp   1
 RotChk:  IX=2 Diff= 7.53D-02
 Largest Abelian subgroup         C1      NOp   1
 Largest concise Abelian subgroup C1      NOp   1
                         Standard orientation:                         
 ---------------------------------------------------------------------
 Center     Atomic      Atomic             Coordinates (Angstroms)
 Number     Number       Type             X           Y           Z
 ---------------------------------------------------------------------
      1          8           0        1.140548   -0.700926    0.007039
      2          8           0        0.107895    1.278888    0.052949
      3          6           0       -1.212306   -0.739855    0.060691
      4          6           0       -2.458948    0.120160   -0.057428
      5          6           0        2.386247   -0.010245   -0.043716
      6          6           0        0.050051    0.080885    0.005226
      7          1           0       -1.206955   -1.432184   -0.783054
      8          1           0       -1.140635   -1.360029    0.955954
      9          1           0       -2.516438    0.840457    0.756376
     10          1           0       -3.349751   -0.504555   -0.033097
     11          1           0       -2.460125    0.670316   -0.996455
     12          1           0        3.153833   -0.776768   -0.035226
     13          1           0        2.451445    0.587192   -0.951001
     14          1           0        2.490806    0.646210    0.817964
 ---------------------------------------------------------------------
 Rotational constants (GHZ):           9.6469142           2.1666845           1.8315686
 Leave Link  202 at Tue Apr 23 21:59:04 2019, MaxMem=   671088640 cpu:               0.2 elap:               0.0
 (Enter /shared/centos7/gaussian/g16/l301.exe)
 Standard basis: 6-311+G(2df,2p) (5D, 7F)
 Ernie: Thresh=  0.10000D-02 Tol=  0.10000D-05 Strict=F.
 There are   306 symmetry adapted cartesian basis functions of A   symmetry.
 There are   276 symmetry adapted basis functions of A   symmetry.
   276 basis functions,   400 primitive gaussians,   306 cartesian basis functions
    24 alpha electrons       24 beta electrons
       nuclear repulsion energy       246.5128419552 Hartrees.
 IExCor= 4336 DFT=T Ex+Corr=M062X ExCW=0 ScaHFX=  0.540000
 ScaDFX=  1.000000  1.000000  1.000000  1.000000 ScalE2=  1.000000  1.000000
 IRadAn=      5 IRanWt=     -1 IRanGd=            0 ICorTp=0 IEmpDi=  4
 NAtoms=   14 NActive=   14 NUniq=   14 SFac= 1.00D+00 NAtFMM=   60 NAOKFM=F Big=F
 Integral buffers will be    131072 words long.
 Raffenetti 2 integral format.
 Two-electron integral symmetry is turned on.
 Leave Link  301 at Tue Apr 23 21:59:04 2019, MaxMem=   671088640 cpu:               1.3 elap:               0.1
 (Enter /shared/centos7/gaussian/g16/l302.exe)
 NPDir=0 NMtPBC=     1 NCelOv=     1 NCel=       1 NClECP=     1 NCelD=      1
         NCelK=      1 NCelE2=     1 NClLst=     1 CellRange=     0.0.
 One-electron integrals computed using PRISM.
 One-electron integral symmetry used in STVInt
 NBasis=   276 RedAO= T EigKep=  2.98D-05  NBF=   276
 NBsUse=   276 1.00D-06 EigRej= -1.00D+00 NBFU=   276
 Precomputing XC quadrature grid using
 IXCGrd= 4 IRadAn=           5 IRanWt=          -1 IRanGd=           0 AccXCQ= 0.00D+00.
 Generated NRdTot=       0 NPtTot=           0 NUsed=           0 NTot=          32
 NSgBfM=   306   306   306   306   306 MxSgAt=    14 MxSgA2=    14.
 Leave Link  302 at Tue Apr 23 21:59:04 2019, MaxMem=   671088640 cpu:               6.1 elap:               0.3
 (Enter /shared/centos7/gaussian/g16/l303.exe)
 DipDrv:  MaxL=1.
 Leave Link  303 at Tue Apr 23 21:59:04 2019, MaxMem=   671088640 cpu:               0.7 elap:               0.1
 (Enter /shared/centos7/gaussian/g16/l401.exe)
 Initial guess from the checkpoint file:  "/scratch/underkoffler.c/gaussian_scratch/Gau-13646.chk"
 B after Tr=    -0.000000    0.000000   -0.000000
         Rot=    0.999964    0.008426   -0.000311    0.000487 Ang=   0.97 deg.
 Guess basis will be translated and rotated to current coordinates.
 JPrj=2 DoOrth=T DoCkMO=T.
 Generating alternative initial guess.
 ExpMin= 4.38D-02 ExpMax= 8.59D+03 ExpMxC= 1.30D+03 IAcc=2 IRadAn=         4 AccDes= 0.00D+00
 Harris functional with IExCor= 1009 and IRadAn=       4 diagonalized for initial guess.
 HarFok:  IExCor= 1009 AccDes= 0.00D+00 IRadAn=         4 IDoV= 1 UseB2=F ITyADJ=14
 ICtDFT=  3500011 ScaDFX=  1.000000  1.000000  1.000000  1.000000
 FoFCou: FMM=F IPFlag=           0 FMFlag=      100000 FMFlg1=           0
         NFxFlg=           0 DoJE=T BraDBF=F KetDBF=T FulRan=T
         wScrn=  0.000000 ICntrl=       500 IOpCl=  0 I1Cent=   200000004 NGrid=           0
         NMat0=    1 NMatS0=      1 NMatT0=    0 NMatD0=    1 NMtDS0=    0 NMtDT0=    0
 Petite list used in FoFCou.
 Harris En= -307.572438108676    
 Leave Link  401 at Tue Apr 23 21:59:05 2019, MaxMem=   671088640 cpu:              12.0 elap:               0.6
 (Enter /shared/centos7/gaussian/g16/l502.exe)
 Integral symmetry usage will be decided dynamically.
 Closed shell SCF:
 Using DIIS extrapolation, IDIIS=  1040.
 NGot=   671088640 LenX=   670892442 LenY=   670798365
 Requested convergence on RMS density matrix=1.00D-08 within 128 cycles.
 Requested convergence on MAX density matrix=1.00D-06.
 Requested convergence on             energy=1.00D-06.
 No special actions if energy rises.
 Fock matrices will be formed incrementally for  20 cycles.

 Cycle   1  Pass 1  IDiag  1:
 FoFJK:  IHMeth= 1 ICntrl=       0 DoSepK=F KAlg= 0 I1Cent=           0 FoldK=F
 IRaf= 960000000 NMat=       1 IRICut=       1 DoRegI=T DoRafI=F ISym2E= 0 IDoP0=0 IntGTp=1.
 FoFCou: FMM=F IPFlag=           0 FMFlag=      100000 FMFlg1=           0
         NFxFlg=           0 DoJE=F BraDBF=F KetDBF=F FulRan=T
         wScrn=  0.000000 ICntrl=         0 IOpCl=  0 I1Cent=           0 NGrid=           0
         NMat0=    1 NMatS0=      1 NMatT0=    0 NMatD0=    1 NMtDS0=    0 NMtDT0=    0
 Symmetry not used in FoFCou.
 E= -307.669818648375    
 DIIS: error= 2.56D-03 at cycle   1 NSaved=   1.
 NSaved= 1 IEnMin= 1 EnMin= -307.669818648375     IErMin= 1 ErrMin= 2.56D-03
 ErrMax= 2.56D-03  0.00D+00 EMaxC= 1.00D-01 BMatC= 3.65D-03 BMatP= 3.65D-03
 IDIUse=3 WtCom= 9.74D-01 WtEn= 2.56D-02
 Coeff-Com:  0.100D+01
 Coeff-En:   0.100D+01
 Coeff:      0.100D+01
 Gap=     0.604 Goal=   None    Shift=    0.000
 GapD=    0.604 DampG=2.000 DampE=1.000 DampFc=2.0000 IDamp=-1.
 RMSDP=4.63D-04 MaxDP=3.13D-02              OVMax= 1.69D-02

 Cycle   2  Pass 1  IDiag  1:
 RMSU=  4.62D-04    CP:  9.98D-01
 E= -307.674764813861     Delta-E=       -0.004946165486 Rises=F Damp=F
 DIIS: error= 4.77D-04 at cycle   2 NSaved=   2.
 NSaved= 2 IEnMin= 2 EnMin= -307.674764813861     IErMin= 2 ErrMin= 4.77D-04
 ErrMax= 4.77D-04  0.00D+00 EMaxC= 1.00D-01 BMatC= 1.17D-04 BMatP= 3.65D-03
 IDIUse=3 WtCom= 9.95D-01 WtEn= 4.77D-03
 Coeff-Com: -0.131D+00 0.113D+01
 Coeff-En:   0.000D+00 0.100D+01
 Coeff:     -0.131D+00 0.113D+01
 Gap=     0.367 Goal=   None    Shift=    0.000
 RMSDP=6.53D-05 MaxDP=2.91D-03 DE=-4.95D-03 OVMax= 4.96D-03

 Cycle   3  Pass 1  IDiag  1:
 RMSU=  4.46D-05    CP:  9.98D-01  1.10D+00
 E= -307.675001080344     Delta-E=       -0.000236266483 Rises=F Damp=F
 DIIS: error= 1.61D-04 at cycle   3 NSaved=   3.
 NSaved= 3 IEnMin= 3 EnMin= -307.675001080344     IErMin= 3 ErrMin= 1.61D-04
 ErrMax= 1.61D-04  0.00D+00 EMaxC= 1.00D-01 BMatC= 9.29D-06 BMatP= 1.17D-04
 IDIUse=3 WtCom= 9.98D-01 WtEn= 1.61D-03
 Coeff-Com: -0.331D-01 0.172D+00 0.861D+00
 Coeff-En:   0.000D+00 0.000D+00 0.100D+01
 Coeff:     -0.331D-01 0.172D+00 0.862D+00
 Gap=     0.366 Goal=   None    Shift=    0.000
 RMSDP=1.56D-05 MaxDP=5.78D-04 DE=-2.36D-04 OVMax= 1.12D-03

 Cycle   4  Pass 1  IDiag  1:
 RMSU=  1.51D-05    CP:  9.98D-01  1.11D+00  1.08D+00
 E= -307.675008955882     Delta-E=       -0.000007875538 Rises=F Damp=F
 DIIS: error= 1.33D-04 at cycle   4 NSaved=   4.
 NSaved= 4 IEnMin= 4 EnMin= -307.675008955882     IErMin= 4 ErrMin= 1.33D-04
 ErrMax= 1.33D-04  0.00D+00 EMaxC= 1.00D-01 BMatC= 6.61D-06 BMatP= 9.29D-06
 IDIUse=3 WtCom= 9.99D-01 WtEn= 1.33D-03
 Coeff-Com: -0.407D-02-0.249D-01 0.466D+00 0.563D+00
 Coeff-En:   0.000D+00 0.000D+00 0.485D-01 0.952D+00
 Coeff:     -0.406D-02-0.249D-01 0.465D+00 0.564D+00
 Gap=     0.367 Goal=   None    Shift=    0.000
 RMSDP=7.34D-06 MaxDP=3.74D-04 DE=-7.88D-06 OVMax= 5.90D-04

 Cycle   5  Pass 1  IDiag  1:
 RMSU=  5.38D-06    CP:  9.97D-01  1.10D+00  1.17D+00  7.86D-01
 E= -307.675013662289     Delta-E=       -0.000004706407 Rises=F Damp=F
 DIIS: error= 3.59D-05 at cycle   5 NSaved=   5.
 NSaved= 5 IEnMin= 5 EnMin= -307.675013662289     IErMin= 5 ErrMin= 3.59D-05
 ErrMax= 3.59D-05  0.00D+00 EMaxC= 1.00D-01 BMatC= 5.58D-07 BMatP= 6.61D-06
 IDIUse=1 WtCom= 1.00D+00 WtEn= 0.00D+00
 Coeff-Com:  0.367D-02-0.437D-01 0.785D-01 0.258D+00 0.704D+00
 Coeff:      0.367D-02-0.437D-01 0.785D-01 0.258D+00 0.704D+00
 Gap=     0.367 Goal=   None    Shift=    0.000
 RMSDP=2.47D-06 MaxDP=7.16D-05 DE=-4.71D-06 OVMax= 2.06D-04

 Cycle   6  Pass 1  IDiag  1:
 RMSU=  1.57D-06    CP:  9.98D-01  1.10D+00  1.20D+00  8.49D-01  8.26D-01
 E= -307.675014173272     Delta-E=       -0.000000510983 Rises=F Damp=F
 DIIS: error= 8.32D-06 at cycle   6 NSaved=   6.
 NSaved= 6 IEnMin= 6 EnMin= -307.675014173272     IErMin= 6 ErrMin= 8.32D-06
 ErrMax= 8.32D-06  0.00D+00 EMaxC= 1.00D-01 BMatC= 4.21D-08 BMatP= 5.58D-07
 IDIUse=1 WtCom= 1.00D+00 WtEn= 0.00D+00
 Coeff-Com:  0.195D-02-0.170D-01-0.475D-02 0.563D-01 0.269D+00 0.695D+00
 Coeff:      0.195D-02-0.170D-01-0.475D-02 0.563D-01 0.269D+00 0.695D+00
 Gap=     0.367 Goal=   None    Shift=    0.000
 RMSDP=7.37D-07 MaxDP=3.48D-05 DE=-5.11D-07 OVMax= 8.39D-05

 Cycle   7  Pass 1  IDiag  1:
 RMSU=  5.38D-07    CP:  9.97D-01  1.10D+00  1.20D+00  8.64D-01  8.94D-01
                    CP:  1.01D+00
 E= -307.675014214334     Delta-E=       -0.000000041063 Rises=F Damp=F
 DIIS: error= 3.93D-06 at cycle   7 NSaved=   7.
 NSaved= 7 IEnMin= 7 EnMin= -307.675014214334     IErMin= 7 ErrMin= 3.93D-06
 ErrMax= 3.93D-06  0.00D+00 EMaxC= 1.00D-01 BMatC= 6.87D-09 BMatP= 4.21D-08
 IDIUse=1 WtCom= 1.00D+00 WtEn= 0.00D+00
 Coeff-Com:  0.669D-04 0.210D-02-0.167D-01-0.308D-01-0.425D-01 0.266D+00
 Coeff-Com:  0.822D+00
 Coeff:      0.669D-04 0.210D-02-0.167D-01-0.308D-01-0.425D-01 0.266D+00
 Coeff:      0.822D+00
 Gap=     0.367 Goal=   None    Shift=    0.000
 RMSDP=3.61D-07 MaxDP=1.36D-05 DE=-4.11D-08 OVMax= 4.39D-05

 Cycle   8  Pass 1  IDiag  1:
 RMSU=  2.27D-07    CP:  9.97D-01  1.10D+00  1.20D+00  8.70D-01  9.19D-01
                    CP:  1.14D+00  1.04D+00
 E= -307.675014221858     Delta-E=       -0.000000007524 Rises=F Damp=F
 DIIS: error= 1.32D-06 at cycle   8 NSaved=   8.
[...]
           A15        110.41802 110.37176
           A16        110.32182 110.37126
           A17        110.62231 110.61295
           A18        110.60146 110.61304
           A19        108.86821 108.85465
           A20        123.08961 123.10597
           A21        111.45782 111.38354
           A22        125.44942 125.51048
           D1         179.95391-180.00015
           D2         -60.20103 -60.18618
           D3          60.18604  60.18604
           D4           0.61201   0.01642
           D5         179.99857 179.99852
           D6         -59.63096 -59.52013
           D7         179.99718-179.99979
           D8          59.52182  59.52192
           D9        -179.70956 179.71922
           D10         59.91857  59.23957
           D11        -60.55679 -61.23872
           D12         61.78824  61.27246
           D13        -58.58363 -59.20720
           D14       -179.05899-179.68549
           D15        170.63090-179.98161
           D16        -10.00000  -0.00004
           D17        -66.69946 -56.67840
           D18        112.66963 123.30318
           D19         46.80403  56.70020
           D20       -133.82688-123.31822
 Largest change from initial coordinates is atom    8       0.000 Angstoms.
 GradGradGradGradGradGradGradGradGradGradGradGradGradGradGradGradGradGrad

 Leave Link  103 at Tue Apr 23 22:58:07 2019, MaxMem=   671088640 cpu:               0.6 elap:               0.1
 (Enter /shared/centos7/gaussian/g16/l202.exe)
                          Input orientation:                          
 ---------------------------------------------------------------------
 Center     Atomic      Atomic             Coordinates (Angstroms)
 Number     Number       Type             X           Y           Z
 ---------------------------------------------------------------------
      1          8           0        0.903266    0.740152    0.508045
      2          8           0        0.483153   -1.011944   -0.815768
      3          6           0       -1.349516    0.087390    0.299187
      4          6           0       -2.289399   -0.908670   -0.357904
      5          6           0        2.288074    0.593533    0.204566
      6          6           0        0.089052   -0.148310   -0.081857
      7          1           0       -1.409343    0.044496    1.388104
      8          1           0       -1.594405    1.115935    0.028540
      9          1           0       -2.219038   -0.847439   -1.442095
     10          1           0       -3.318903   -0.713245   -0.064145
     11          1           0       -2.033003   -1.926844   -0.071971
     12          1           0        2.799108    1.377479    0.753211
     13          1           0        2.642714   -0.386631    0.517270
     14          1           0        2.455126    0.703158   -0.865178
 ---------------------------------------------------------------------
                    Distance matrix (angstroms):
                    1          2          3          4          5
     1  O    0.000000
     2  O    2.235803   0.000000
     3  C    2.354728   2.410463   0.000000
     4  C    3.696159   2.812001   1.518975   0.000000
     5  C    1.425234   2.622285   3.673853   4.850387   0.000000
     6  C    1.341750   1.199918   1.506727   2.512246   2.338390
     7  H    2.570331   3.091061   1.091403   2.175217   3.920855
     8  H    2.570894   3.091435   1.091387   2.175174   3.921420
     9  H    4.009024   2.778701   2.159175   1.088195   5.010185
    10  H    4.501830   3.887131   2.156737   1.088285   5.763512
    11  H    4.008860   2.778726   2.159178   1.088198   5.010038
    12  H    2.015071   3.678952   4.368243   5.688054   1.084775
    13  H    2.072536   2.613755   4.026184   5.036288   1.088244
    14  H    2.072530   2.613942   4.026191   5.036451   1.088244
                    6          7          8          9         10
     6  C    0.000000
     7  H    2.107878   0.000000
     8  H    2.108206   1.740874   0.000000
     9  H    2.768810   3.075903   2.531358   0.000000
    10  H    3.454508   2.515873   2.515628   1.768180   0.000000
    11  H    2.768826   2.531196   3.075870   1.754127   1.768169
    12  H    3.220213   4.459932   4.460550   5.911972   6.516844
    13  H    2.633807   4.166941   4.522139   5.261947   5.998800
    14  H    2.633799   4.521641   4.167471   4.958326   5.998939
                   11         12         13         14
    11  H    0.000000
    12  H    5.911749   0.000000
    13  H    4.958003   1.786676   0.000000
    14  H    5.262071   1.786677   1.770308   0.000000
 Stoichiometry    C4H8O2
 Framework group  C1[X(C4H8O2)]
 Deg. of freedom    36
 Full point group                 C1      NOp   1
 RotChk:  IX=2 Diff= 1.35D-15
 Largest Abelian subgroup         C1      NOp   1
 Largest concise Abelian subgroup C1      NOp   1
                         Standard orientation:                         
 ---------------------------------------------------------------------
 Center     Atomic      Atomic             Coordinates (Angstroms)
 Number     Number       Type             X           Y           Z
 ---------------------------------------------------------------------
      1          8           0        1.143225   -0.700732   -0.000052
      2          8           0        0.101868    1.277750    0.000049
      3          6           0       -1.211110   -0.743740    0.000106
      4          6           0       -2.460688    0.119881   -0.000109
      5          6           0        2.388048   -0.006680   -0.000052
      6          6           0        0.051224    0.078901    0.000159
      7          1           0       -1.171704   -1.400866   -0.870407
      8          1           0       -1.172206   -1.401071    0.870467
      9          1           0       -2.484268    0.763698    0.876882
     10          1           0       -3.354191   -0.501421   -0.000139
     11          1           0       -2.484100    0.763510   -0.877246
     12          1           0        3.157043   -0.771784   -0.000231
     13          1           0        2.471847    0.620944   -0.885117
     14          1           0        2.471988    0.620675    0.885191
 ---------------------------------------------------------------------
 Rotational constants (GHZ):           9.6751061           2.1661622           1.8295770
 Leave Link  202 at Tue Apr 23 22:58:07 2019, MaxMem=   671088640 cpu:               0.2 elap:               0.0
 (Enter /shared/centos7/gaussian/g16/l601.exe)
 Copying SCF densities to generalized density rwf, IOpCl= 0 IROHF=0.

 **********************************************************************

            Population analysis using the SCF density.

 **********************************************************************

 Orbital symmetries:
       Occupied  (A) (A) (A) (A) (A) (A) (A) (A) (A) (A) (A) (A)
                 (A) (A) (A) (A) (A) (A) (A) (A) (A) (A) (A) (A)
       Virtual   (A) (A) (A) (A) (A) (A) (A) (A) (A) (A) (A) (A)
                 (A) (A) (A) (A) (A) (A) (A) (A) (A) (A) (A) (A)
                 (A) (A) (A) (A) (A) (A) (A) (A) (A) (A) (A) (A)
                 (A) (A) (A) (A) (A) (A) (A) (A) (A) (A) (A) (A)
                 (A) (A) (A) (A) (A) (A) (A) (A) (A) (A) (A) (A)
                 (A) (A) (A) (A) (A) (A) (A) (A) (A) (A) (A) (A)
                 (A) (A) (A) (A) (A) (A) (A) (A) (A) (A) (A) (A)
                 (A) (A) (A) (A) (A) (A) (A) (A) (A) (A) (A) (A)
                 (A) (A) (A) (A) (A) (A) (A) (A) (A) (A) (A) (A)
                 (A) (A) (A) (A) (A) (A) (A) (A) (A) (A) (A) (A)
                 (A) (A) (A) (A) (A) (A) (A) (A) (A) (A) (A) (A)
                 (A) (A) (A) (A) (A) (A) (A) (A) (A) (A) (A) (A)
                 (A) (A) (A) (A) (A) (A) (A) (A) (A) (A) (A) (A)
                 (A) (A) (A) (A) (A) (A) (A) (A) (A) (A) (A) (A)
                 (A) (A) (A) (A) (A) (A) (A) (A) (A) (A) (A) (A)
                 (A) (A) (A) (A) (A) (A) (A) (A) (A) (A) (A) (A)
                 (A) (A) (A) (A) (A) (A) (A) (A) (A) (A) (A) (A)
                 (A) (A) (A) (A) (A) (A) (A) (A) (A) (A) (A) (A)
                 (A) (A) (A) (A) (A) (A) (A) (A) (A) (A) (A) (A)
                 (A) (A) (A) (A) (A) (A) (A) (A) (A) (A) (A) (A)
                 (A) (A) (A) (A) (A) (A) (A) (A) (A) (A) (A) (A)
 The electronic state is 1-A.
 Alpha  occ. eigenvalues --  -19.66863 -19.61279 -10.66806 -10.58922 -10.55063
 Alpha  occ. eigenvalues --  -10.52800  -1.23855  -1.14353  -0.89349  -0.82387
 Alpha  occ. eigenvalues --   -0.73252  -0.64607  -0.58973  -0.58005  -0.56227
 Alpha  occ. eigenvalues --   -0.52482  -0.50589  -0.46018  -0.44639  -0.44048
 Alpha  occ. eigenvalues --   -0.42653  -0.41443  -0.37843  -0.35594
 Alpha virt. eigenvalues --    0.01131   0.02431   0.03677   0.03960   0.05005
 Alpha virt. eigenvalues --    0.05090   0.05753   0.06577   0.08384   0.08734
 Alpha virt. eigenvalues --    0.09016   0.09734   0.10542   0.12387   0.14286
 Alpha virt. eigenvalues --    0.15261   0.17997   0.19119   0.20012   0.20068
 Alpha virt. eigenvalues --    0.21602   0.22426   0.23004   0.23325   0.24349
 Alpha virt. eigenvalues --    0.26440   0.27717   0.28357   0.28444   0.29376
 Alpha virt. eigenvalues --    0.30486   0.32095   0.33755   0.34550   0.36719
 Alpha virt. eigenvalues --    0.38665   0.39657   0.41468   0.44371   0.47140
 Alpha virt. eigenvalues --    0.47821   0.49382   0.50519   0.51629   0.53836
 Alpha virt. eigenvalues --    0.54465   0.55501   0.56196   0.56570   0.57700
 Alpha virt. eigenvalues --    0.61099   0.61349   0.62389   0.63663   0.66426
 Alpha virt. eigenvalues --    0.67341   0.68335   0.70968   0.71670   0.75389
 Alpha virt. eigenvalues --    0.76858   0.78698   0.80793   0.84057   0.84608
 Alpha virt. eigenvalues --    0.87200   0.89469   0.90646   0.92161   0.92744
 Alpha virt. eigenvalues --    0.98539   1.01188   1.02646   1.05900   1.06009
 Alpha virt. eigenvalues --    1.09543   1.10682   1.12093   1.12930   1.13629
 Alpha virt. eigenvalues --    1.16473   1.17513   1.17626   1.18613   1.21358
 Alpha virt. eigenvalues --    1.22797   1.23642   1.24520   1.24530   1.24706
 Alpha virt. eigenvalues --    1.28861   1.30113   1.32921   1.34374   1.35144
 Alpha virt. eigenvalues --    1.39603   1.41985   1.43103   1.43795   1.45847
 Alpha virt. eigenvalues --    1.46726   1.47133   1.49427   1.53067   1.55160
 Alpha virt. eigenvalues --    1.58088   1.59776   1.60735   1.63247   1.65490
 Alpha virt. eigenvalues --    1.67532   1.70032   1.72868   1.77336   1.83305
 Alpha virt. eigenvalues --    1.85140   1.93470   2.06417   2.09904   2.12305
 Alpha virt. eigenvalues --    2.27991   2.35032   2.39289   2.40187   2.49282
 Alpha virt. eigenvalues --    2.52655   2.58107   2.59920   2.66153   2.67913
 Alpha virt. eigenvalues --    2.74599   2.75488   2.79973   2.81264   2.83994
 Alpha virt. eigenvalues --    2.84067   2.84572   2.94350   2.96122   2.98581
 Alpha virt. eigenvalues --    3.00952   3.02276   3.03394   3.07774   3.10533
 Alpha virt. eigenvalues --    3.11400   3.13086   3.13791   3.15341   3.18306
 Alpha virt. eigenvalues --    3.19894   3.24956   3.26041   3.26851   3.28921
 Alpha virt. eigenvalues --    3.31998   3.34991   3.40341   3.40653   3.43069
 Alpha virt. eigenvalues --    3.45078   3.49525   3.51629   3.51719   3.52309
 Alpha virt. eigenvalues --    3.52966   3.56315   3.57859   3.61176   3.61304
 Alpha virt. eigenvalues --    3.67456   3.67959   3.72394   3.77529   3.82849
 Alpha virt. eigenvalues --    3.83163   3.86962   3.87392   3.91245   3.94899
 Alpha virt. eigenvalues --    3.95484   3.97411   4.00605   4.01696   4.02027
 Alpha virt. eigenvalues --    4.06038   4.12701   4.13915   4.17716   4.18665
 Alpha virt. eigenvalues --    4.26511   4.26856   4.28829   4.31000   4.31019
 Alpha virt. eigenvalues --    4.32105   4.32634   4.34827   4.36439   4.43097
 Alpha virt. eigenvalues --    4.48241   4.49802   4.51358   4.54089   4.55667
 Alpha virt. eigenvalues --    4.60859   4.72682   4.91931   4.93145   5.08307
 Alpha virt. eigenvalues --    5.11823   5.14952   5.20611   5.20814   5.23681
 Alpha virt. eigenvalues --    5.27479   5.37357   5.40971   5.45126   5.50686
 Alpha virt. eigenvalues --    5.53212   5.56705   5.57334   5.58222   5.65218
 Alpha virt. eigenvalues --    5.67243   5.69381   5.74852   5.80629   6.00288
 Alpha virt. eigenvalues --    6.09630   6.38784   6.45962   6.69862   6.83660
 Alpha virt. eigenvalues --    6.96611   7.06543   7.11743   7.17799   7.19469
 Alpha virt. eigenvalues --    7.25783   7.31778   7.55375   7.67683   7.77758
 Alpha virt. eigenvalues --    7.83484  24.34338  24.43852  24.46700  24.86030
 Alpha virt. eigenvalues --   50.17733  50.31651
          Condensed to atoms (all electrons):
               1          2          3          4          5          6
     1  O    8.214832  -0.084624  -0.218004   0.008872   0.151218   0.216914
     2  O   -0.084624   8.213349   0.001425  -0.029726  -0.035570   0.348854
     3  C   -0.218004   0.001425   5.666639   0.094555  -0.061839  -0.133561
     4  C    0.008872  -0.029726   0.094555   5.176219  -0.013363   0.077214
     5  C    0.151218  -0.035570  -0.061839  -0.013363   4.967612  -0.107667
     6  C    0.216914   0.348854  -0.133561   0.077214  -0.107667   5.443032
     7  H    0.002452   0.000621   0.450870  -0.038751   0.001435  -0.048718
     8  H    0.002453   0.000623   0.450845  -0.038737   0.001428  -0.048673
     9  H    0.000084  -0.001578  -0.024632   0.412768  -0.000209  -0.006999
    10  H   -0.000608   0.001223  -0.078180   0.424390   0.000452   0.038415
    11  H    0.000084  -0.001579  -0.024635   0.412762  -0.000210  -0.006987
    12  H   -0.059015   0.003701   0.002345   0.000790   0.419179   0.017895
    13  H   -0.035577  -0.004399  -0.001459  -0.000948   0.431126   0.001858
    14  H   -0.035580  -0.004393  -0.001456  -0.000947   0.431121   0.001856
               7          8          9         10         11         12
     1  O    0.002452   0.002453   0.000084  -0.000608   0.000084  -0.059015
     2  O    0.000621   0.000623  -0.001578   0.001223  -0.001579   0.003701
     3  C    0.450870   0.450845  -0.024632  -0.078180  -0.024635   0.002345
     4  C   -0.038751  -0.038737   0.412768   0.424390   0.412762   0.000790
     5  C    0.001435   0.001428  -0.000209   0.000452  -0.000210   0.419179
     6  C   -0.048718  -0.048673  -0.006999   0.038415  -0.006987   0.017895
     7  H    0.517204  -0.037192   0.005409  -0.003514  -0.006674   0.000009
     8  H   -0.037192   0.517180  -0.006668  -0.003519   0.005409   0.000009
     9  H    0.005409  -0.006668   0.528095  -0.025292  -0.031323  -0.000002
    10  H   -0.003514  -0.003519  -0.025292   0.538138  -0.025290  -0.000000
    11  H   -0.006674   0.005409  -0.031323  -0.025290   0.528103  -0.000002
    12  H    0.000009   0.000009  -0.000002  -0.000000  -0.000002   0.533252
    13  H    0.000137  -0.000094   0.000012  -0.000001  -0.000006  -0.025078
    14  H   -0.000094   0.000136  -0.000006  -0.000001   0.000012  -0.025077
              13         14
     1  O   -0.035577  -0.035580
     2  O   -0.004399  -0.004393
     3  C   -0.001459  -0.001456
     4  C   -0.000948  -0.000947
     5  C    0.431126   0.431121
     6  C    0.001858   0.001856
     7  H    0.000137  -0.000094
     8  H   -0.000094   0.000136
     9  H    0.000012  -0.000006
    10  H   -0.000001  -0.000001
    11  H   -0.000006   0.000012
    12  H   -0.025078  -0.025077
    13  H    0.533185  -0.037522
    14  H   -0.037522   0.533190
 Mulliken charges:
               1
     1  O   -0.163501
     2  O   -0.407929
     3  C   -0.122913
     4  C   -0.485099
     5  C   -0.184712
     6  C    0.206568
     7  H    0.156805
     8  H    0.156798
     9  H    0.150340
    10  H    0.133788
    11  H    0.150335
    12  H    0.131994
    13  H    0.138766
    14  H    0.138760
 Sum of Mulliken charges =  -0.00000
 Mulliken charges with hydrogens summed into heavy atoms:
               1
     1  O   -0.163501
     2  O   -0.407929
     3  C    0.190690
     4  C   -0.050636
     5  C    0.224808
     6  C    0.206568
 Electronic spatial extent (au):  <R**2>=            688.1230
 Charge=             -0.0000 electrons
 Dipole moment (field-independent basis, Debye):
    X=              0.3634    Y=             -1.6693    Z=              0.0001  Tot=              1.7084
 Quadrupole moment (field-independent basis, Debye-Ang):
   XX=            -30.8406   YY=            -41.3455   ZZ=            -35.8975
   XY=              1.4919   XZ=             -0.0003   YZ=             -0.0003
 Traceless Quadrupole moment (field-independent basis, Debye-Ang):
   XX=              5.1873   YY=             -5.3176   ZZ=              0.1304
   XY=              1.4919   XZ=             -0.0003   YZ=             -0.0003
 Octapole moment (field-independent basis, Debye-Ang**2):
  XXX=             19.2488  YYY=             -3.9890  ZZZ=             -0.0000  XYY=              0.1619
  XXY=             -0.2954  XXZ=              0.0002  XZZ=              1.9759  YZZ=              0.8849
  YYZ=             -0.0001  XYZ=              0.0008
 Hexadecapole moment (field-independent basis, Debye-Ang**3):
 XXXX=           -660.1523 YYYY=           -165.1755 ZZZZ=            -54.7743 XXXY=             -2.8548
 XXXZ=             -0.0035 YYYX=             -1.1324 YYYZ=             -0.0013 ZZZX=              0.0005
 ZZZY=             -0.0004 XXYY=           -139.3908 XXZZ=           -125.5822 YYZZ=            -33.0510
 XXYZ=              0.0003 YYXZ=             -0.0029 ZZXY=              0.7658
 N-N= 2.465140120355D+02 E-N=-1.212780538774D+03  KE= 3.065735704132D+02
 No NMR shielding tensors so no spin-rotation constants.
 Leave Link  601 at Tue Apr 23 22:58:07 2019, MaxMem=   671088640 cpu:               5.6 elap:               0.3
 (Enter /shared/centos7/gaussian/g16/l9999.exe)
 1\1\GINC-C0174\Scan\RM062X\6-311+G(2df,2p)\C4H8O2\UNDERKOFFLER.C\23-Ap
 r-2019\0\\#p m062x/6-311+g(2df,2p) Opt=(CalcFC,ModRedun)\\Gaussian Inp
 ut Prepared from Scan Object\\0,1\O,0.9032659436,0.7401516819,0.508045
 0419\O,0.4831526263,-1.0119435746,-0.8157684683\C,-1.3495156223,0.0873
 897293,0.2991870232\C,-2.2893993966,-0.9086700722,-0.3579044999\C,2.28
 80744446,0.5935331555,0.2045655628\C,0.0890523318,-0.1483102639,-0.081
 8567171\H,-1.4093433204,0.0444960065,1.3881040984\H,-1.5944047173,1.11
 59350217,0.0285400586\H,-2.2190379006,-0.8474393628,-1.4420947511\H,-3
 .3189034426,-0.7132448127,-0.0641446196\H,-2.0330032812,-1.9268438362,
 -0.0719708354\H,2.7991079732,1.3774790508,0.7532106049\H,2.642714269,-
 0.3866305262,0.5172697513\H,2.4551260924,0.7031578027,-0.8651782496\\V
 ersion=EM64L-G16RevA.03\State=1-A\HF=-307.6763594,-307.6762539,-307.67
 59699,-307.6755807,-307.6751681,-307.6748155,-307.6745753,-307.674473,
 -307.6744852,-307.6745481,-307.6746122,-307.6746523,-307.6746461,-307.
 6745962,-307.6745167,-307.6744247,-307.67434,-307.6742804,-307.6742618
 ,-307.6742845,-307.6743481,-307.6744342,-307.6745258,-307.6746037,-307
 .6746527,-307.6746581,-307.6746191,-307.6745574,-307.6744994,-307.6744
 909,-307.6745941,-307.6748312,-307.6751781,-307.6755856,-307.6759711,-
 307.676254,-307.6763594\RMSD=6.148e-09,7.269e-09,6.204e-09,4.550e-09,4
 .017e-09,7.784e-09,7.383e-09,5.973e-09,5.266e-09,8.624e-09,4.566e-09,8
 .477e-09,6.514e-09,3.371e-09,9.033e-09,9.823e-09,7.186e-09,7.818e-09,7
 .158e-09,6.131e-09,6.297e-09,5.996e-09,6.755e-09,6.519e-09,5.155e-09,2
 .238e-09,8.351e-09,5.599e-09,6.660e-09,9.420e-09,8.420e-09,8.513e-09,7
 .478e-09,9.997e-09,5.583e-09,6.994e-09,7.529e-09\PG=C01 [X(C4H8O2)]\\@


 ONE THORN OF EXPERIENCE IS WORTH A WHOLE WILDERNESS OF
 WARNING....  LOWELL - AMONG MY BOOKS
 Job cpu time:       0 days 20 hours 38 minutes 38.9 seconds.
 Elapsed time:       0 days  1 hours  2 minutes 38.8 seconds.
 File lengths (MBytes):  RWF=   1328 Int=      0 D2E=      0 Chk=     32 Scr=     32
 Normal termination of Gaussian 16 at Tue Apr 23 22:58:07 2019.
